500  
1    

1    
  0.0100000000000000   0.0000000000000000   0.0000000000000000
  -0.0021577603   -0.0000000000   -0.0000000000
  -0.0000296403   -0.0000000000   -0.0000000000
  -0.0000001503   -0.0000000000   -0.0000000000
  -0.0000001503   -0.0000000000   -0.0000000000
  -0.0000293003   -0.0000000000   -0.0000000000
   0.0000048197    0.0000000300    0.0000000000
  -0.0000010103   -0.0000013500   -0.0000000000
  -0.0000000503   -0.0000000300   -0.0000000000
  -0.0000000503    0.0000000300    0.0000000000
  -0.0000010003    0.0000013400    0.0000000000
   0.0000000197    0.0000000000    0.0000000000
  -0.0000000103   -0.0000000300   -0.0000000000
  -0.0000000003   -0.0000000000   -0.0000000000
  -0.0000000003   -0.0000000000   -0.0000000000
  -0.0000000103    0.0000000300    0.0000000000
   0.0000000197    0.0000000000    0.0000000000
  -0.0000000103    0.0000000300    0.0000000000
  -0.0000000003   -0.0000000000   -0.0000000000
  -0.0000000003   -0.0000000000   -0.0000000000
  -0.0000000103   -0.0000000300   -0.0000000000
   0.0000048197   -0.0000000300    0.0000000000
  -0.0000010103    0.0000013500    0.0000000000
  -0.0000000503    0.0000000300    0.0000000000
  -0.0000000503   -0.0000000300   -0.0000000000
  -0.0000010003   -0.0000013400   -0.0000000000
   0.0000048197    0.0000000000    0.0000000300
  -0.0000010103   -0.0000000000   -0.0000013500
  -0.0000000503   -0.0000000000   -0.0000000300
  -0.0000000503   -0.0000000000    0.0000000300
  -0.0000010003   -0.0000000000    0.0000013400
   0.0000003397    0.0000000000    0.0000000000
  -0.0000001103   -0.0000001800   -0.0000001800
  -0.0000000003   -0.0000000000   -0.0000000000
  -0.0000000003   -0.0000000000   -0.0000000000
  -0.0000001103    0.0000001800    0.0000001800
   0.0000000097    0.0000000000    0.0000000000
  -0.0000000003   -0.0000000000   -0.0000000000
  -0.0000000003   -0.0000000000   -0.0000000000
  -0.0000000003   -0.0000000000   -0.0000000000
  -0.0000000003   -0.0000000000   -0.0000000000
   0.0000000097    0.0000000000    0.0000000000
  -0.0000000003   -0.0000000000   -0.0000000000
  -0.0000000003   -0.0000000000   -0.0000000000
  -0.0000000003   -0.0000000000   -0.0000000000
  -0.0000000003   -0.0000000000   -0.0000000000
   0.0000003397    0.0000000000    0.0000000000
  -0.0000001103    0.0000001800   -0.0000001800
  -0.0000000003   -0.0000000000   -0.0000000000
  -0.0000000003   -0.0000000000   -0.0000000000
  -0.0000001103   -0.0000001800    0.0000001800
   0.0000000197    0.0000000000    0.0000000000
  -0.0000000103   -0.0000000000   -0.0000000300
  -0.0000000003   -0.0000000000   -0.0000000000
  -0.0000000003   -0.0000000000   -0.0000000000
  -0.0000000103   -0.0000000000    0.0000000300
   0.0000000097    0.0000000000    0.0000000000
  -0.0000000003   -0.0000000000   -0.0000000000
  -0.0000000003   -0.0000000000   -0.0000000000
  -0.0000000003   -0.0000000000   -0.0000000000
  -0.0000000003   -0.0000000000   -0.0000000000
  -0.0000000003   -0.0000000000   -0.0000000000
  -0.0000000003   -0.0000000000   -0.0000000000
  -0.0000000003   -0.0000000000   -0.0000000000
  -0.0000000003   -0.0000000000   -0.0000000000
  -0.0000000003   -0.0000000000   -0.0000000000
  -0.0000000003   -0.0000000000   -0.0000000000
  -0.0000000003   -0.0000000000   -0.0000000000
  -0.0000000003   -0.0000000000   -0.0000000000
  -0.0000000003   -0.0000000000   -0.0000000000
  -0.0000000003   -0.0000000000   -0.0000000000
   0.0000000097    0.0000000000    0.0000000000
  -0.0000000003   -0.0000000000   -0.0000000000
  -0.0000000003   -0.0000000000   -0.0000000000
  -0.0000000003   -0.0000000000   -0.0000000000
  -0.0000000003   -0.0000000000   -0.0000000000
   0.0000000197    0.0000000000    0.0000000000
  -0.0000000103   -0.0000000000    0.0000000300
  -0.0000000003   -0.0000000000   -0.0000000000
  -0.0000000003   -0.0000000000   -0.0000000000
  -0.0000000103   -0.0000000000   -0.0000000300
   0.0000000097    0.0000000000    0.0000000000
  -0.0000000003   -0.0000000000   -0.0000000000
  -0.0000000003   -0.0000000000   -0.0000000000
  -0.0000000003   -0.0000000000   -0.0000000000
  -0.0000000003   -0.0000000000   -0.0000000000
  -0.0000000003   -0.0000000000   -0.0000000000
  -0.0000000003   -0.0000000000   -0.0000000000
  -0.0000000003   -0.0000000000   -0.0000000000
  -0.0000000003   -0.0000000000   -0.0000000000
  -0.0000000003   -0.0000000000   -0.0000000000
  -0.0000000003   -0.0000000000   -0.0000000000
  -0.0000000003   -0.0000000000   -0.0000000000
  -0.0000000003   -0.0000000000   -0.0000000000
  -0.0000000003   -0.0000000000   -0.0000000000
  -0.0000000003   -0.0000000000   -0.0000000000
   0.0000000097    0.0000000000    0.0000000000
  -0.0000000003   -0.0000000000   -0.0000000000
  -0.0000000003   -0.0000000000   -0.0000000000
  -0.0000000003   -0.0000000000   -0.0000000000
  -0.0000000003   -0.0000000000   -0.0000000000
   0.0000048197    0.0000000000   -0.0000000300
  -0.0000010103   -0.0000000000    0.0000013500
  -0.0000000503   -0.0000000000    0.0000000300
  -0.0000000503   -0.0000000000   -0.0000000300
  -0.0000010003   -0.0000000000   -0.0000013400
   0.0000003397    0.0000000000    0.0000000000
  -0.0000001103   -0.0000001800    0.0000001800
  -0.0000000003   -0.0000000000   -0.0000000000
  -0.0000000003   -0.0000000000   -0.0000000000
  -0.0000001103    0.0000001800   -0.0000001800
   0.0000000097    0.0000000000    0.0000000000
  -0.0000000003   -0.0000000000   -0.0000000000
  -0.0000000003   -0.0000000000   -0.0000000000
  -0.0000000003   -0.0000000000   -0.0000000000
  -0.0000000003   -0.0000000000   -0.0000000000
   0.0000000097    0.0000000000    0.0000000000
  -0.0000000003   -0.0000000000   -0.0000000000
  -0.0000000003   -0.0000000000   -0.0000000000
  -0.0000000003   -0.0000000000   -0.0000000000
  -0.0000000003   -0.0000000000   -0.0000000000
   0.0000003397    0.0000000000    0.0000000000
  -0.0000001103    0.0000001800    0.0000001800
  -0.0000000003   -0.0000000000   -0.0000000000
  -0.0000000003   -0.0000000000   -0.0000000000
  -0.0000001103   -0.0000001800   -0.0000001800
  -0.0000029203   -0.0000005300   -0.0000005300
  -0.0000044103   -0.0000027400   -0.0000027400
  -0.0000000803   -0.0000000200   -0.0000000200
  -0.0000000803    0.0000000200    0.0000000200
  -0.0000043703    0.0000027100    0.0000027100
   0.0000001397    0.0000000000    0.0000000000
  -0.0000000503   -0.0000001300   -0.0000000400
  -0.0000000003   -0.0000000000   -0.0000000000
  -0.0000000003   -0.0000000000   -0.0000000000
  -0.0000000503    0.0000001300    0.0000000400
  -0.0000000003   -0.0000000000   -0.0000000000
  -0.0000000003   -0.0000000000   -0.0000000000
  -0.0000000003   -0.0000000000   -0.0000000000
  -0.0000000003   -0.0000000000   -0.0000000000
  -0.0000000003   -0.0000000000   -0.0000000000
   0.0000001397    0.0000000000    0.0000000000
  -0.0000000503    0.0000001300   -0.0000000400
  -0.0000000003   -0.0000000000   -0.0000000000
  -0.0000000003   -0.0000000000   -0.0000000000
  -0.0000000503   -0.0000001300    0.0000000400
  -0.0000029203    0.0000005300   -0.0000005300
  -0.0000044103    0.0000027400   -0.0000027400
  -0.0000000803    0.0000000200   -0.0000000200
  -0.0000000803   -0.0000000200    0.0000000200
  -0.0000043703   -0.0000027100    0.0000027100
   0.0000001397    0.0000000000    0.0000000000
  -0.0000000503   -0.0000000400   -0.0000001300
  -0.0000000003   -0.0000000000   -0.0000000000
  -0.0000000003   -0.0000000000   -0.0000000000
  -0.0000000503    0.0000000400    0.0000001300
   0.0000000097    0.0000000000    0.0000000000
  -0.0000000003   -0.0000000100   -0.0000000100
  -0.0000000003   -0.0000000000   -0.0000000000
  -0.0000000003   -0.0000000000   -0.0000000000
  -0.0000000003    0.0000000100    0.0000000100
  -0.0000000003   -0.0000000000   -0.0000000000
  -0.0000000003   -0.0000000000   -0.0000000000
  -0.0000000003   -0.0000000000   -0.0000000000
  -0.0000000003   -0.0000000000   -0.0000000000
  -0.0000000003   -0.0000000000   -0.0000000000
   0.0000000097    0.0000000000    0.0000000000
  -0.0000000003    0.0000000100   -0.0000000100
  -0.0000000003   -0.0000000000   -0.0000000000
  -0.0000000003   -0.0000000000   -0.0000000000
  -0.0000000003   -0.0000000100    0.0000000100
   0.0000001397    0.0000000000    0.0000000000
  -0.0000000503    0.0000000400   -0.0000001300
  -0.0000000003   -0.0000000000   -0.0000000000
  -0.0000000003   -0.0000000000   -0.0000000000
  -0.0000000503   -0.0000000400    0.0000001300
  -0.0000000003   -0.0000000000   -0.0000000000
  -0.0000000003   -0.0000000000   -0.0000000000
  -0.0000000003   -0.0000000000   -0.0000000000
  -0.0000000003   -0.0000000000   -0.0000000000
  -0.0000000003   -0.0000000000   -0.0000000000
  -0.0000000003   -0.0000000000   -0.0000000000
  -0.0000000003   -0.0000000000   -0.0000000000
  -0.0000000003   -0.0000000000   -0.0000000000
  -0.0000000003   -0.0000000000   -0.0000000000
  -0.0000000003   -0.0000000000   -0.0000000000
  -0.0000000003   -0.0000000000   -0.0000000000
  -0.0000000003   -0.0000000000   -0.0000000000
  -0.0000000003   -0.0000000000   -0.0000000000
  -0.0000000003   -0.0000000000   -0.0000000000
  -0.0000000003   -0.0000000000   -0.0000000000
  -0.0000000003   -0.0000000000   -0.0000000000
  -0.0000000003   -0.0000000000   -0.0000000000
  -0.0000000003   -0.0000000000   -0.0000000000
  -0.0000000003   -0.0000000000   -0.0000000000
  -0.0000000003   -0.0000000000   -0.0000000000
  -0.0000000003   -0.0000000000   -0.0000000000
  -0.0000000003   -0.0000000000   -0.0000000000
  -0.0000000003   -0.0000000000   -0.0000000000
  -0.0000000003   -0.0000000000   -0.0000000000
  -0.0000000003   -0.0000000000   -0.0000000000
   0.0000001397    0.0000000000    0.0000000000
  -0.0000000503   -0.0000000400    0.0000001300
  -0.0000000003   -0.0000000000   -0.0000000000
  -0.0000000003   -0.0000000000   -0.0000000000
  -0.0000000503    0.0000000400   -0.0000001300
   0.0000000097    0.0000000000    0.0000000000
  -0.0000000003   -0.0000000100    0.0000000100
  -0.0000000003   -0.0000000000   -0.0000000000
  -0.0000000003   -0.0000000000   -0.0000000000
  -0.0000000003    0.0000000100   -0.0000000100
  -0.0000000003   -0.0000000000   -0.0000000000
  -0.0000000003   -0.0000000000   -0.0000000000
  -0.0000000003   -0.0000000000   -0.0000000000
  -0.0000000003   -0.0000000000   -0.0000000000
  -0.0000000003   -0.0000000000   -0.0000000000
   0.0000000097    0.0000000000    0.0000000000
  -0.0000000003    0.0000000100    0.0000000100
  -0.0000000003   -0.0000000000   -0.0000000000
  -0.0000000003   -0.0000000000   -0.0000000000
  -0.0000000003   -0.0000000100   -0.0000000100
   0.0000001397    0.0000000000    0.0000000000
  -0.0000000503    0.0000000400    0.0000001300
  -0.0000000003   -0.0000000000   -0.0000000000
  -0.0000000003   -0.0000000000   -0.0000000000
  -0.0000000503   -0.0000000400   -0.0000001300
  -0.0000029203   -0.0000005300    0.0000005300
  -0.0000044103   -0.0000027400    0.0000027400
  -0.0000000803   -0.0000000200    0.0000000200
  -0.0000000803    0.0000000200   -0.0000000200
  -0.0000043703    0.0000027100   -0.0000027100
   0.0000001397    0.0000000000    0.0000000000
  -0.0000000503   -0.0000001300    0.0000000400
  -0.0000000003   -0.0000000000   -0.0000000000
  -0.0000000003   -0.0000000000   -0.0000000000
  -0.0000000503    0.0000001300   -0.0000000400
  -0.0000000003   -0.0000000000   -0.0000000000
  -0.0000000003   -0.0000000000   -0.0000000000
  -0.0000000003   -0.0000000000   -0.0000000000
  -0.0000000003   -0.0000000000   -0.0000000000
  -0.0000000003   -0.0000000000   -0.0000000000
   0.0000001397    0.0000000000    0.0000000000
  -0.0000000503    0.0000001300    0.0000000400
  -0.0000000003   -0.0000000000   -0.0000000000
  -0.0000000003   -0.0000000000   -0.0000000000
  -0.0000000503   -0.0000001300   -0.0000000400
  -0.0000029203    0.0000005300    0.0000005300
  -0.0000044103    0.0000027400    0.0000027400
  -0.0000000803    0.0000000200    0.0000000200
  -0.0000000803   -0.0000000200   -0.0000000200
  -0.0000043703   -0.0000027100   -0.0000027100
   0.0002879997    0.0000000000    0.0002920000
  -0.0000008703   -0.0000000000   -0.0000003400
  -0.0000000003   -0.0000000000   -0.0000000000
  -0.0000008603   -0.0000000000    0.0000003300
   0.0002787197    0.0000000000   -0.0002805900
  -0.0000003103   -0.0000027200   -0.0000013600
  -0.0000001503   -0.0000001300   -0.0000000600
  -0.0000000003   -0.0000000000   -0.0000000000
  -0.0000001503    0.0000001300    0.0000000600
  -0.0000003103    0.0000027200    0.0000013600
   0.0000000097   -0.0000000200   -0.0000000100
  -0.0000000003   -0.0000000000   -0.0000000000
  -0.0000000003   -0.0000000000   -0.0000000000
  -0.0000000003   -0.0000000000   -0.0000000000
   0.0000000097    0.0000000200    0.0000000100
   0.0000000097    0.0000000200   -0.0000000100
  -0.0000000003   -0.0000000000   -0.0000000000
  -0.0000000003   -0.0000000000   -0.0000000000
  -0.0000000003   -0.0000000000   -0.0000000000
   0.0000000097   -0.0000000200    0.0000000100
  -0.0000003103    0.0000027200   -0.0000013600
  -0.0000001503    0.0000001300   -0.0000000600
  -0.0000000003   -0.0000000000   -0.0000000000
  -0.0000001503   -0.0000001300    0.0000000600
  -0.0000003103   -0.0000027200    0.0000013600
   0.0000000297    0.0000000000   -0.0000003400
  -0.0000000403   -0.0000000000   -0.0000000500
  -0.0000000003   -0.0000000000   -0.0000000000
  -0.0000000403   -0.0000000000    0.0000000500
   0.0000000297    0.0000000000    0.0000003400
   0.0000000197   -0.0000000400   -0.0000000600
  -0.0000000103   -0.0000000100   -0.0000000200
  -0.0000000003   -0.0000000000   -0.0000000000
  -0.0000000103    0.0000000100    0.0000000200
   0.0000000197    0.0000000400    0.0000000600
  -0.0000000003   -0.0000000000   -0.0000000000
  -0.0000000003   -0.0000000000   -0.0000000000
  -0.0000000003   -0.0000000000   -0.0000000000
  -0.0000000003   -0.0000000000   -0.0000000000
  -0.0000000003   -0.0000000000   -0.0000000000
  -0.0000000003   -0.0000000000   -0.0000000000
  -0.0000000003   -0.0000000000   -0.0000000000
  -0.0000000003   -0.0000000000   -0.0000000000
  -0.0000000003   -0.0000000000   -0.0000000000
  -0.0000000003   -0.0000000000   -0.0000000000
   0.0000000197    0.0000000400   -0.0000000600
  -0.0000000103    0.0000000100   -0.0000000200
  -0.0000000003   -0.0000000000   -0.0000000000
  -0.0000000103   -0.0000000100    0.0000000200
   0.0000000197   -0.0000000400    0.0000000600
  -0.0000000003   -0.0000000000   -0.0000000000
  -0.0000000003   -0.0000000000   -0.0000000000
  -0.0000000003   -0.0000000000   -0.0000000000
  -0.0000000003   -0.0000000000   -0.0000000000
  -0.0000000003   -0.0000000000   -0.0000000000
  -0.0000000003   -0.0000000000   -0.0000000000
  -0.0000000003   -0.0000000000   -0.0000000000
  -0.0000000003   -0.0000000000   -0.0000000000
  -0.0000000003   -0.0000000000   -0.0000000000
  -0.0000000003   -0.0000000000   -0.0000000000
  -0.0000000003   -0.0000000000   -0.0000000000
  -0.0000000003   -0.0000000000   -0.0000000000
  -0.0000000003   -0.0000000000   -0.0000000000
  -0.0000000003   -0.0000000000   -0.0000000000
  -0.0000000003   -0.0000000000   -0.0000000000
  -0.0000000003   -0.0000000000   -0.0000000000
  -0.0000000003   -0.0000000000   -0.0000000000
  -0.0000000003   -0.0000000000   -0.0000000000
  -0.0000000003   -0.0000000000   -0.0000000000
  -0.0000000003   -0.0000000000   -0.0000000000
  -0.0000000003   -0.0000000000   -0.0000000000
  -0.0000000003   -0.0000000000   -0.0000000000
  -0.0000000003   -0.0000000000   -0.0000000000
  -0.0000000003   -0.0000000000   -0.0000000000
  -0.0000000003   -0.0000000000   -0.0000000000
   0.0000000297    0.0000000000    0.0000003400
  -0.0000000403   -0.0000000000    0.0000000500
  -0.0000000003   -0.0000000000   -0.0000000000
  -0.0000000403   -0.0000000000   -0.0000000500
   0.0000000297    0.0000000000   -0.0000003400
   0.0000000197   -0.0000000400    0.0000000600
  -0.0000000103   -0.0000000100    0.0000000200
  -0.0000000003   -0.0000000000   -0.0000000000
  -0.0000000103    0.0000000100   -0.0000000200
   0.0000000197    0.0000000400   -0.0000000600
  -0.0000000003   -0.0000000000   -0.0000000000
  -0.0000000003   -0.0000000000   -0.0000000000
  -0.0000000003   -0.0000000000   -0.0000000000
  -0.0000000003   -0.0000000000   -0.0000000000
  -0.0000000003   -0.0000000000   -0.0000000000
  -0.0000000003   -0.0000000000   -0.0000000000
  -0.0000000003   -0.0000000000   -0.0000000000
  -0.0000000003   -0.0000000000   -0.0000000000
  -0.0000000003   -0.0000000000   -0.0000000000
  -0.0000000003   -0.0000000000   -0.0000000000
   0.0000000197    0.0000000400    0.0000000600
  -0.0000000103    0.0000000100    0.0000000200
  -0.0000000003   -0.0000000000   -0.0000000000
  -0.0000000103   -0.0000000100   -0.0000000200
   0.0000000197   -0.0000000400   -0.0000000600
   0.0002879997    0.0000000000   -0.0002920000
  -0.0000008703   -0.0000000000    0.0000003400
  -0.0000000003   -0.0000000000   -0.0000000000
  -0.0000008603   -0.0000000000   -0.0000003300
   0.0002787197    0.0000000000    0.0002805900
  -0.0000003103   -0.0000027200    0.0000013600
  -0.0000001503   -0.0000001300    0.0000000600
  -0.0000000003   -0.0000000000   -0.0000000000
  -0.0000001503    0.0000001300   -0.0000000600
  -0.0000003103    0.0000027200   -0.0000013600
   0.0000000097   -0.0000000200    0.0000000100
  -0.0000000003   -0.0000000000   -0.0000000000
  -0.0000000003   -0.0000000000   -0.0000000000
  -0.0000000003   -0.0000000000   -0.0000000000
   0.0000000097    0.0000000200   -0.0000000100
   0.0000000097    0.0000000200    0.0000000100
  -0.0000000003   -0.0000000000   -0.0000000000
  -0.0000000003   -0.0000000000   -0.0000000000
  -0.0000000003   -0.0000000000   -0.0000000000
   0.0000000097   -0.0000000200   -0.0000000100
  -0.0000003103    0.0000027200    0.0000013600
  -0.0000001503    0.0000001300    0.0000000600
  -0.0000000003   -0.0000000000   -0.0000000000
  -0.0000001503   -0.0000001300   -0.0000000600
  -0.0000003103   -0.0000027200   -0.0000013600
   0.0002879997    0.0002920000    0.0000000000
  -0.0000008703   -0.0000003400   -0.0000000000
  -0.0000000003   -0.0000000000   -0.0000000000
  -0.0000008603    0.0000003300   -0.0000000000
   0.0002787197   -0.0002805900   -0.0000000000
   0.0000000297   -0.0000003400   -0.0000000000
  -0.0000000403   -0.0000000500   -0.0000000000
  -0.0000000003   -0.0000000000   -0.0000000000
  -0.0000000403    0.0000000500    0.0000000000
   0.0000000297    0.0000003400    0.0000000000
  -0.0000000003   -0.0000000000   -0.0000000000
  -0.0000000003   -0.0000000000   -0.0000000000
  -0.0000000003   -0.0000000000   -0.0000000000
  -0.0000000003   -0.0000000000   -0.0000000000
  -0.0000000003   -0.0000000000   -0.0000000000
   0.0000000297    0.0000003400    0.0000000000
  -0.0000000403    0.0000000500    0.0000000000
  -0.0000000003   -0.0000000000   -0.0000000000
  -0.0000000403   -0.0000000500   -0.0000000000
   0.0000000297   -0.0000003400   -0.0000000000
   0.0002879997   -0.0002920000   -0.0000000000
  -0.0000008703    0.0000003400   -0.0000000000
  -0.0000000003   -0.0000000000   -0.0000000000
  -0.0000008603   -0.0000003300   -0.0000000000
   0.0002787197    0.0002805900    0.0000000000
  -0.0000003103   -0.0000013600   -0.0000027200
  -0.0000001503   -0.0000000600   -0.0000001300
  -0.0000000003   -0.0000000000   -0.0000000000
  -0.0000001503    0.0000000600    0.0000001300
  -0.0000003103    0.0000013600    0.0000027200
   0.0000000197   -0.0000000600   -0.0000000400
  -0.0000000103   -0.0000000200   -0.0000000100
  -0.0000000003   -0.0000000000   -0.0000000000
  -0.0000000103    0.0000000200    0.0000000100
   0.0000000197    0.0000000600    0.0000000400
  -0.0000000003   -0.0000000000   -0.0000000000
  -0.0000000003   -0.0000000000   -0.0000000000
  -0.0000000003   -0.0000000000   -0.0000000000
  -0.0000000003   -0.0000000000   -0.0000000000
  -0.0000000003   -0.0000000000   -0.0000000000
   0.0000000197    0.0000000600   -0.0000000400
  -0.0000000103    0.0000000200   -0.0000000100
  -0.0000000003   -0.0000000000   -0.0000000000
  -0.0000000103   -0.0000000200    0.0000000100
   0.0000000197   -0.0000000600    0.0000000400
  -0.0000003103    0.0000013600   -0.0000027200
  -0.0000001503    0.0000000600   -0.0000001300
  -0.0000000003   -0.0000000000   -0.0000000000
  -0.0000001503   -0.0000000600    0.0000001300
  -0.0000003103   -0.0000013600    0.0000027200
   0.0000000097   -0.0000000100   -0.0000000200
  -0.0000000003   -0.0000000000   -0.0000000000
  -0.0000000003   -0.0000000000   -0.0000000000
  -0.0000000003   -0.0000000000   -0.0000000000
   0.0000000097    0.0000000100    0.0000000200
  -0.0000000003   -0.0000000000   -0.0000000000
  -0.0000000003   -0.0000000000   -0.0000000000
  -0.0000000003   -0.0000000000   -0.0000000000
  -0.0000000003   -0.0000000000   -0.0000000000
  -0.0000000003   -0.0000000000   -0.0000000000
  -0.0000000003   -0.0000000000   -0.0000000000
  -0.0000000003   -0.0000000000   -0.0000000000
  -0.0000000003   -0.0000000000   -0.0000000000
  -0.0000000003   -0.0000000000   -0.0000000000
  -0.0000000003   -0.0000000000   -0.0000000000
  -0.0000000003   -0.0000000000   -0.0000000000
  -0.0000000003   -0.0000000000   -0.0000000000
  -0.0000000003   -0.0000000000   -0.0000000000
  -0.0000000003   -0.0000000000   -0.0000000000
  -0.0000000003   -0.0000000000   -0.0000000000
   0.0000000097    0.0000000100   -0.0000000200
  -0.0000000003   -0.0000000000   -0.0000000000
  -0.0000000003   -0.0000000000   -0.0000000000
  -0.0000000003   -0.0000000000   -0.0000000000
   0.0000000097   -0.0000000100    0.0000000200
   0.0000000097   -0.0000000100    0.0000000200
  -0.0000000003   -0.0000000000   -0.0000000000
  -0.0000000003   -0.0000000000   -0.0000000000
  -0.0000000003   -0.0000000000   -0.0000000000
   0.0000000097    0.0000000100   -0.0000000200
  -0.0000000003   -0.0000000000   -0.0000000000
  -0.0000000003   -0.0000000000   -0.0000000000
  -0.0000000003   -0.0000000000   -0.0000000000
  -0.0000000003   -0.0000000000   -0.0000000000
  -0.0000000003   -0.0000000000   -0.0000000000
  -0.0000000003   -0.0000000000   -0.0000000000
  -0.0000000003   -0.0000000000   -0.0000000000
  -0.0000000003   -0.0000000000   -0.0000000000
  -0.0000000003   -0.0000000000   -0.0000000000
  -0.0000000003   -0.0000000000   -0.0000000000
  -0.0000000003   -0.0000000000   -0.0000000000
  -0.0000000003   -0.0000000000   -0.0000000000
  -0.0000000003   -0.0000000000   -0.0000000000
  -0.0000000003   -0.0000000000   -0.0000000000
  -0.0000000003   -0.0000000000   -0.0000000000
   0.0000000097    0.0000000100    0.0000000200
  -0.0000000003   -0.0000000000   -0.0000000000
  -0.0000000003   -0.0000000000   -0.0000000000
  -0.0000000003   -0.0000000000   -0.0000000000
   0.0000000097   -0.0000000100   -0.0000000200
  -0.0000003103   -0.0000013600    0.0000027200
  -0.0000001503   -0.0000000600    0.0000001300
  -0.0000000003   -0.0000000000   -0.0000000000
  -0.0000001503    0.0000000600   -0.0000001300
  -0.0000003103    0.0000013600   -0.0000027200
   0.0000000197   -0.0000000600    0.0000000400
  -0.0000000103   -0.0000000200    0.0000000100
  -0.0000000003   -0.0000000000   -0.0000000000
  -0.0000000103    0.0000000200   -0.0000000100
   0.0000000197    0.0000000600   -0.0000000400
  -0.0000000003   -0.0000000000   -0.0000000000
  -0.0000000003   -0.0000000000   -0.0000000000
  -0.0000000003   -0.0000000000   -0.0000000000
  -0.0000000003   -0.0000000000   -0.0000000000
  -0.0000000003   -0.0000000000   -0.0000000000
   0.0000000197    0.0000000600    0.0000000400
  -0.0000000103    0.0000000200    0.0000000100
  -0.0000000003   -0.0000000000   -0.0000000000
  -0.0000000103   -0.0000000200   -0.0000000100
   0.0000000197   -0.0000000600   -0.0000000400
  -0.0000003103    0.0000013600    0.0000027200
  -0.0000001503    0.0000000600    0.0000001300
  -0.0000000003   -0.0000000000   -0.0000000000
  -0.0000001503   -0.0000000600   -0.0000001300
  -0.0000003103   -0.0000013600   -0.0000027200
