   4  500
1 1
     0.215776030000000    -0.000000000000000    -0.000000000000000
    -0.000000000000000     0.215776030000000    -0.000000000000000
    -0.000000000000000    -0.000000000000000     0.215776030000000
1 2
     0.002947030000000    -0.000000000000000    -0.000000000000000
    -0.000000000000000    -0.000481970000000    -0.000000000000000
    -0.000000000000000    -0.000000000000000    -0.000481970000000
1 3
     0.000015030000000    -0.000000000000000    -0.000000000000000
    -0.000000000000000    -0.000001970000000    -0.000000000000000
    -0.000000000000000    -0.000000000000000    -0.000001970000000
1 4
     0.000015030000000    -0.000000000000000    -0.000000000000000
    -0.000000000000000    -0.000001970000000    -0.000000000000000
    -0.000000000000000    -0.000000000000000    -0.000001970000000
1 5
     0.002947030000000    -0.000000000000000    -0.000000000000000
     0.000000000000000    -0.000481970000000    -0.000000000000000
     0.000000000000000    -0.000000000000000    -0.000481970000000
1 6
    -0.000481970000000     0.000000000000000    -0.000000000000000
    -0.000000000000000     0.002947030000000    -0.000000000000000
    -0.000000000000000    -0.000000000000000    -0.000481970000000
1 7
     0.000100530000000     0.000134500000000    -0.000000000000000
     0.000134500000000     0.000100530000000    -0.000000000000000
    -0.000000000000000    -0.000000000000000    -0.000033970000000
1 8
     0.000005030000000     0.000003000000000    -0.000000000000000
     0.000003000000000     0.000001030000000    -0.000000000000000
    -0.000000000000000    -0.000000000000000    -0.000000970000000
1 9
     0.000005030000000    -0.000003000000000    -0.000000000000000
    -0.000003000000000     0.000001030000000    -0.000000000000000
    -0.000000000000000    -0.000000000000000    -0.000000970000000
1 10
     0.000100530000000    -0.000134500000000    -0.000000000000000
    -0.000134500000000     0.000100530000000    -0.000000000000000
    -0.000000000000000    -0.000000000000000    -0.000033970000000
1 11
    -0.000001970000000    -0.000000000000000    -0.000000000000000
    -0.000000000000000     0.000015030000000    -0.000000000000000
    -0.000000000000000    -0.000000000000000    -0.000001970000000
1 12
     0.000001030000000     0.000003000000000    -0.000000000000000
     0.000003000000000     0.000005030000000    -0.000000000000000
    -0.000000000000000    -0.000000000000000    -0.000000970000000
1 13
     0.000000030000000    -0.000000000000000    -0.000000000000000
    -0.000000000000000     0.000000030000000    -0.000000000000000
    -0.000000000000000    -0.000000000000000     0.000000030000000
1 14
     0.000000030000000    -0.000000000000000    -0.000000000000000
    -0.000000000000000     0.000000030000000    -0.000000000000000
    -0.000000000000000    -0.000000000000000     0.000000030000000
1 15
     0.000001030000000    -0.000003000000000    -0.000000000000000
    -0.000003000000000     0.000005030000000    -0.000000000000000
    -0.000000000000000    -0.000000000000000    -0.000000970000000
1 16
    -0.000001970000000    -0.000000000000000    -0.000000000000000
    -0.000000000000000     0.000015030000000    -0.000000000000000
    -0.000000000000000    -0.000000000000000    -0.000001970000000
1 17
     0.000001030000000    -0.000003000000000    -0.000000000000000
    -0.000003000000000     0.000005030000000    -0.000000000000000
    -0.000000000000000    -0.000000000000000    -0.000000970000000
1 18
     0.000000030000000    -0.000000000000000    -0.000000000000000
    -0.000000000000000     0.000000030000000    -0.000000000000000
    -0.000000000000000    -0.000000000000000     0.000000030000000
1 19
     0.000000030000000    -0.000000000000000    -0.000000000000000
    -0.000000000000000     0.000000030000000    -0.000000000000000
    -0.000000000000000    -0.000000000000000     0.000000030000000
1 20
     0.000001030000000     0.000003000000000    -0.000000000000000
     0.000003000000000     0.000005030000000    -0.000000000000000
    -0.000000000000000    -0.000000000000000    -0.000000970000000
1 21
    -0.000481970000000    -0.000000000000000    -0.000000000000000
    -0.000000000000000     0.002947030000000    -0.000000000000000
    -0.000000000000000     0.000000000000000    -0.000481970000000
1 22
     0.000100530000000    -0.000134500000000    -0.000000000000000
    -0.000134500000000     0.000100530000000    -0.000000000000000
    -0.000000000000000    -0.000000000000000    -0.000033970000000
1 23
     0.000005030000000    -0.000003000000000    -0.000000000000000
    -0.000003000000000     0.000001030000000    -0.000000000000000
    -0.000000000000000    -0.000000000000000    -0.000000970000000
1 24
     0.000005030000000     0.000003000000000    -0.000000000000000
     0.000003000000000     0.000001030000000    -0.000000000000000
    -0.000000000000000    -0.000000000000000    -0.000000970000000
1 25
     0.000100530000000     0.000134500000000    -0.000000000000000
     0.000134500000000     0.000100530000000    -0.000000000000000
    -0.000000000000000    -0.000000000000000    -0.000033970000000
1 26
    -0.000481970000000    -0.000000000000000     0.000000000000000
    -0.000000000000000    -0.000481970000000    -0.000000000000000
    -0.000000000000000    -0.000000000000000     0.002947030000000
1 27
     0.000100530000000    -0.000000000000000     0.000134500000000
    -0.000000000000000    -0.000033970000000    -0.000000000000000
     0.000134500000000    -0.000000000000000     0.000100530000000
1 28
     0.000005030000000    -0.000000000000000     0.000003000000000
    -0.000000000000000    -0.000000970000000    -0.000000000000000
     0.000003000000000    -0.000000000000000     0.000001030000000
1 29
     0.000005030000000    -0.000000000000000    -0.000003000000000
    -0.000000000000000    -0.000000970000000    -0.000000000000000
    -0.000003000000000    -0.000000000000000     0.000001030000000
1 30
     0.000100530000000    -0.000000000000000    -0.000134500000000
    -0.000000000000000    -0.000033970000000    -0.000000000000000
    -0.000134500000000    -0.000000000000000     0.000100530000000
1 31
    -0.000033970000000    -0.000000000000000    -0.000000000000000
    -0.000000000000000     0.000100530000000     0.000134500000000
    -0.000000000000000     0.000134500000000     0.000100530000000
1 32
     0.000011030000000     0.000018000000000     0.000018000000000
     0.000018000000000     0.000011030000000     0.000018000000000
     0.000018000000000     0.000018000000000     0.000011030000000
1 33
     0.000000030000000    -0.000000000000000    -0.000000000000000
    -0.000000000000000     0.000000030000000    -0.000000000000000
    -0.000000000000000    -0.000000000000000     0.000000030000000
1 34
     0.000000030000000    -0.000000000000000    -0.000000000000000
    -0.000000000000000     0.000000030000000    -0.000000000000000
    -0.000000000000000    -0.000000000000000     0.000000030000000
1 35
     0.000011030000000    -0.000018000000000    -0.000018000000000
    -0.000018000000000     0.000011030000000     0.000018000000000
    -0.000018000000000     0.000018000000000     0.000011030000000
1 36
    -0.000000970000000    -0.000000000000000    -0.000000000000000
    -0.000000000000000     0.000005030000000     0.000003000000000
    -0.000000000000000     0.000003000000000     0.000001030000000
1 37
     0.000000030000000    -0.000000000000000    -0.000000000000000
    -0.000000000000000     0.000000030000000    -0.000000000000000
    -0.000000000000000    -0.000000000000000     0.000000030000000
1 38
     0.000000030000000    -0.000000000000000    -0.000000000000000
    -0.000000000000000     0.000000030000000    -0.000000000000000
    -0.000000000000000    -0.000000000000000     0.000000030000000
1 39
     0.000000030000000    -0.000000000000000    -0.000000000000000
    -0.000000000000000     0.000000030000000    -0.000000000000000
    -0.000000000000000    -0.000000000000000     0.000000030000000
1 40
     0.000000030000000    -0.000000000000000    -0.000000000000000
    -0.000000000000000     0.000000030000000    -0.000000000000000
    -0.000000000000000    -0.000000000000000     0.000000030000000
1 41
    -0.000000970000000    -0.000000000000000    -0.000000000000000
    -0.000000000000000     0.000005030000000    -0.000003000000000
    -0.000000000000000    -0.000003000000000     0.000001030000000
1 42
     0.000000030000000    -0.000000000000000    -0.000000000000000
    -0.000000000000000     0.000000030000000    -0.000000000000000
    -0.000000000000000    -0.000000000000000     0.000000030000000
1 43
     0.000000030000000    -0.000000000000000    -0.000000000000000
    -0.000000000000000     0.000000030000000    -0.000000000000000
    -0.000000000000000    -0.000000000000000     0.000000030000000
1 44
     0.000000030000000    -0.000000000000000    -0.000000000000000
    -0.000000000000000     0.000000030000000    -0.000000000000000
    -0.000000000000000    -0.000000000000000     0.000000030000000
1 45
     0.000000030000000    -0.000000000000000    -0.000000000000000
    -0.000000000000000     0.000000030000000    -0.000000000000000
    -0.000000000000000    -0.000000000000000     0.000000030000000
1 46
    -0.000033970000000    -0.000000000000000    -0.000000000000000
    -0.000000000000000     0.000100530000000    -0.000134500000000
    -0.000000000000000    -0.000134500000000     0.000100530000000
1 47
     0.000011030000000    -0.000018000000000     0.000018000000000
    -0.000018000000000     0.000011030000000    -0.000018000000000
     0.000018000000000    -0.000018000000000     0.000011030000000
1 48
     0.000000030000000    -0.000000000000000    -0.000000000000000
    -0.000000000000000     0.000000030000000    -0.000000000000000
    -0.000000000000000    -0.000000000000000     0.000000030000000
1 49
     0.000000030000000    -0.000000000000000    -0.000000000000000
    -0.000000000000000     0.000000030000000    -0.000000000000000
    -0.000000000000000    -0.000000000000000     0.000000030000000
1 50
     0.000011030000000     0.000018000000000    -0.000018000000000
     0.000018000000000     0.000011030000000    -0.000018000000000
    -0.000018000000000    -0.000018000000000     0.000011030000000
1 51
    -0.000001970000000    -0.000000000000000    -0.000000000000000
    -0.000000000000000    -0.000001970000000    -0.000000000000000
    -0.000000000000000    -0.000000000000000     0.000015030000000
1 52
     0.000001030000000    -0.000000000000000     0.000003000000000
    -0.000000000000000    -0.000000970000000    -0.000000000000000
     0.000003000000000    -0.000000000000000     0.000005030000000
1 53
     0.000000030000000    -0.000000000000000    -0.000000000000000
    -0.000000000000000     0.000000030000000    -0.000000000000000
    -0.000000000000000    -0.000000000000000     0.000000030000000
1 54
     0.000000030000000    -0.000000000000000    -0.000000000000000
    -0.000000000000000     0.000000030000000    -0.000000000000000
    -0.000000000000000    -0.000000000000000     0.000000030000000
1 55
     0.000001030000000    -0.000000000000000    -0.000003000000000
    -0.000000000000000    -0.000000970000000    -0.000000000000000
    -0.000003000000000    -0.000000000000000     0.000005030000000
1 56
    -0.000000970000000    -0.000000000000000    -0.000000000000000
    -0.000000000000000     0.000001030000000     0.000003000000000
    -0.000000000000000     0.000003000000000     0.000005030000000
1 57
     0.000000030000000    -0.000000000000000    -0.000000000000000
    -0.000000000000000     0.000000030000000    -0.000000000000000
    -0.000000000000000    -0.000000000000000     0.000000030000000
1 58
     0.000000030000000    -0.000000000000000    -0.000000000000000
    -0.000000000000000     0.000000030000000    -0.000000000000000
    -0.000000000000000    -0.000000000000000     0.000000030000000
1 59
     0.000000030000000    -0.000000000000000    -0.000000000000000
    -0.000000000000000     0.000000030000000    -0.000000000000000
    -0.000000000000000    -0.000000000000000     0.000000030000000
1 60
     0.000000030000000    -0.000000000000000    -0.000000000000000
    -0.000000000000000     0.000000030000000    -0.000000000000000
    -0.000000000000000    -0.000000000000000     0.000000030000000
1 61
     0.000000030000000    -0.000000000000000    -0.000000000000000
    -0.000000000000000     0.000000030000000    -0.000000000000000
    -0.000000000000000    -0.000000000000000     0.000000030000000
1 62
     0.000000030000000    -0.000000000000000    -0.000000000000000
    -0.000000000000000     0.000000030000000    -0.000000000000000
    -0.000000000000000    -0.000000000000000     0.000000030000000
1 63
     0.000000030000000    -0.000000000000000    -0.000000000000000
    -0.000000000000000     0.000000030000000    -0.000000000000000
    -0.000000000000000    -0.000000000000000     0.000000030000000
1 64
     0.000000030000000    -0.000000000000000    -0.000000000000000
    -0.000000000000000     0.000000030000000    -0.000000000000000
    -0.000000000000000    -0.000000000000000     0.000000030000000
1 65
     0.000000030000000    -0.000000000000000    -0.000000000000000
    -0.000000000000000     0.000000030000000    -0.000000000000000
    -0.000000000000000    -0.000000000000000     0.000000030000000
1 66
     0.000000030000000    -0.000000000000000    -0.000000000000000
    -0.000000000000000     0.000000030000000    -0.000000000000000
    -0.000000000000000    -0.000000000000000     0.000000030000000
1 67
     0.000000030000000    -0.000000000000000    -0.000000000000000
    -0.000000000000000     0.000000030000000    -0.000000000000000
    -0.000000000000000    -0.000000000000000     0.000000030000000
1 68
     0.000000030000000    -0.000000000000000    -0.000000000000000
    -0.000000000000000     0.000000030000000    -0.000000000000000
    -0.000000000000000    -0.000000000000000     0.000000030000000
1 69
     0.000000030000000    -0.000000000000000    -0.000000000000000
    -0.000000000000000     0.000000030000000    -0.000000000000000
    -0.000000000000000    -0.000000000000000     0.000000030000000
1 70
     0.000000030000000    -0.000000000000000    -0.000000000000000
    -0.000000000000000     0.000000030000000    -0.000000000000000
    -0.000000000000000    -0.000000000000000     0.000000030000000
1 71
    -0.000000970000000    -0.000000000000000    -0.000000000000000
    -0.000000000000000     0.000001030000000    -0.000003000000000
    -0.000000000000000    -0.000003000000000     0.000005030000000
1 72
     0.000000030000000    -0.000000000000000    -0.000000000000000
    -0.000000000000000     0.000000030000000    -0.000000000000000
    -0.000000000000000    -0.000000000000000     0.000000030000000
1 73
     0.000000030000000    -0.000000000000000    -0.000000000000000
    -0.000000000000000     0.000000030000000    -0.000000000000000
    -0.000000000000000    -0.000000000000000     0.000000030000000
1 74
     0.000000030000000    -0.000000000000000    -0.000000000000000
    -0.000000000000000     0.000000030000000    -0.000000000000000
    -0.000000000000000    -0.000000000000000     0.000000030000000
1 75
     0.000000030000000    -0.000000000000000    -0.000000000000000
    -0.000000000000000     0.000000030000000    -0.000000000000000
    -0.000000000000000    -0.000000000000000     0.000000030000000
1 76
    -0.000001970000000    -0.000000000000000    -0.000000000000000
    -0.000000000000000    -0.000001970000000    -0.000000000000000
    -0.000000000000000    -0.000000000000000     0.000015030000000
1 77
     0.000001030000000    -0.000000000000000    -0.000003000000000
    -0.000000000000000    -0.000000970000000    -0.000000000000000
    -0.000003000000000    -0.000000000000000     0.000005030000000
1 78
     0.000000030000000    -0.000000000000000    -0.000000000000000
    -0.000000000000000     0.000000030000000    -0.000000000000000
    -0.000000000000000    -0.000000000000000     0.000000030000000
1 79
     0.000000030000000    -0.000000000000000    -0.000000000000000
    -0.000000000000000     0.000000030000000    -0.000000000000000
    -0.000000000000000    -0.000000000000000     0.000000030000000
1 80
     0.000001030000000    -0.000000000000000     0.000003000000000
    -0.000000000000000    -0.000000970000000    -0.000000000000000
     0.000003000000000    -0.000000000000000     0.000005030000000
1 81
    -0.000000970000000    -0.000000000000000    -0.000000000000000
    -0.000000000000000     0.000001030000000    -0.000003000000000
    -0.000000000000000    -0.000003000000000     0.000005030000000
1 82
     0.000000030000000    -0.000000000000000    -0.000000000000000
    -0.000000000000000     0.000000030000000    -0.000000000000000
    -0.000000000000000    -0.000000000000000     0.000000030000000
1 83
     0.000000030000000    -0.000000000000000    -0.000000000000000
    -0.000000000000000     0.000000030000000    -0.000000000000000
    -0.000000000000000    -0.000000000000000     0.000000030000000
1 84
     0.000000030000000    -0.000000000000000    -0.000000000000000
    -0.000000000000000     0.000000030000000    -0.000000000000000
    -0.000000000000000    -0.000000000000000     0.000000030000000
1 85
     0.000000030000000    -0.000000000000000    -0.000000000000000
    -0.000000000000000     0.000000030000000    -0.000000000000000
    -0.000000000000000    -0.000000000000000     0.000000030000000
1 86
     0.000000030000000    -0.000000000000000    -0.000000000000000
    -0.000000000000000     0.000000030000000    -0.000000000000000
    -0.000000000000000    -0.000000000000000     0.000000030000000
1 87
     0.000000030000000    -0.000000000000000    -0.000000000000000
    -0.000000000000000     0.000000030000000    -0.000000000000000
    -0.000000000000000    -0.000000000000000     0.000000030000000
1 88
     0.000000030000000    -0.000000000000000    -0.000000000000000
    -0.000000000000000     0.000000030000000    -0.000000000000000
    -0.000000000000000    -0.000000000000000     0.000000030000000
1 89
     0.000000030000000    -0.000000000000000    -0.000000000000000
    -0.000000000000000     0.000000030000000    -0.000000000000000
    -0.000000000000000    -0.000000000000000     0.000000030000000
1 90
     0.000000030000000    -0.000000000000000    -0.000000000000000
    -0.000000000000000     0.000000030000000    -0.000000000000000
    -0.000000000000000    -0.000000000000000     0.000000030000000
1 91
     0.000000030000000    -0.000000000000000    -0.000000000000000
    -0.000000000000000     0.000000030000000    -0.000000000000000
    -0.000000000000000    -0.000000000000000     0.000000030000000
1 92
     0.000000030000000    -0.000000000000000    -0.000000000000000
    -0.000000000000000     0.000000030000000    -0.000000000000000
    -0.000000000000000    -0.000000000000000     0.000000030000000
1 93
     0.000000030000000    -0.000000000000000    -0.000000000000000
    -0.000000000000000     0.000000030000000    -0.000000000000000
    -0.000000000000000    -0.000000000000000     0.000000030000000
1 94
     0.000000030000000    -0.000000000000000    -0.000000000000000
    -0.000000000000000     0.000000030000000    -0.000000000000000
    -0.000000000000000    -0.000000000000000     0.000000030000000
1 95
     0.000000030000000    -0.000000000000000    -0.000000000000000
    -0.000000000000000     0.000000030000000    -0.000000000000000
    -0.000000000000000    -0.000000000000000     0.000000030000000
1 96
    -0.000000970000000    -0.000000000000000    -0.000000000000000
    -0.000000000000000     0.000001030000000     0.000003000000000
    -0.000000000000000     0.000003000000000     0.000005030000000
1 97
     0.000000030000000    -0.000000000000000    -0.000000000000000
    -0.000000000000000     0.000000030000000    -0.000000000000000
    -0.000000000000000    -0.000000000000000     0.000000030000000
1 98
     0.000000030000000    -0.000000000000000    -0.000000000000000
    -0.000000000000000     0.000000030000000    -0.000000000000000
    -0.000000000000000    -0.000000000000000     0.000000030000000
1 99
     0.000000030000000    -0.000000000000000    -0.000000000000000
    -0.000000000000000     0.000000030000000    -0.000000000000000
    -0.000000000000000    -0.000000000000000     0.000000030000000
1 100
     0.000000030000000    -0.000000000000000    -0.000000000000000
    -0.000000000000000     0.000000030000000    -0.000000000000000
    -0.000000000000000    -0.000000000000000     0.000000030000000
1 101
    -0.000481970000000    -0.000000000000000    -0.000000000000000
    -0.000000000000000    -0.000481970000000     0.000000000000000
    -0.000000000000000    -0.000000000000000     0.002947030000000
1 102
     0.000100530000000    -0.000000000000000    -0.000134500000000
    -0.000000000000000    -0.000033970000000    -0.000000000000000
    -0.000134500000000    -0.000000000000000     0.000100530000000
1 103
     0.000005030000000    -0.000000000000000    -0.000003000000000
    -0.000000000000000    -0.000000970000000    -0.000000000000000
    -0.000003000000000    -0.000000000000000     0.000001030000000
1 104
     0.000005030000000    -0.000000000000000     0.000003000000000
    -0.000000000000000    -0.000000970000000    -0.000000000000000
     0.000003000000000    -0.000000000000000     0.000001030000000
1 105
     0.000100530000000    -0.000000000000000     0.000134500000000
    -0.000000000000000    -0.000033970000000    -0.000000000000000
     0.000134500000000    -0.000000000000000     0.000100530000000
1 106
    -0.000033970000000    -0.000000000000000    -0.000000000000000
    -0.000000000000000     0.000100530000000    -0.000134500000000
    -0.000000000000000    -0.000134500000000     0.000100530000000
1 107
     0.000011030000000     0.000018000000000    -0.000018000000000
     0.000018000000000     0.000011030000000    -0.000018000000000
    -0.000018000000000    -0.000018000000000     0.000011030000000
1 108
     0.000000030000000    -0.000000000000000    -0.000000000000000
    -0.000000000000000     0.000000030000000    -0.000000000000000
    -0.000000000000000    -0.000000000000000     0.000000030000000
1 109
     0.000000030000000    -0.000000000000000    -0.000000000000000
    -0.000000000000000     0.000000030000000    -0.000000000000000
    -0.000000000000000    -0.000000000000000     0.000000030000000
1 110
     0.000011030000000    -0.000018000000000     0.000018000000000
    -0.000018000000000     0.000011030000000    -0.000018000000000
     0.000018000000000    -0.000018000000000     0.000011030000000
1 111
    -0.000000970000000    -0.000000000000000    -0.000000000000000
    -0.000000000000000     0.000005030000000    -0.000003000000000
    -0.000000000000000    -0.000003000000000     0.000001030000000
1 112
     0.000000030000000    -0.000000000000000    -0.000000000000000
    -0.000000000000000     0.000000030000000    -0.000000000000000
    -0.000000000000000    -0.000000000000000     0.000000030000000
1 113
     0.000000030000000    -0.000000000000000    -0.000000000000000
    -0.000000000000000     0.000000030000000    -0.000000000000000
    -0.000000000000000    -0.000000000000000     0.000000030000000
1 114
     0.000000030000000    -0.000000000000000    -0.000000000000000
    -0.000000000000000     0.000000030000000    -0.000000000000000
    -0.000000000000000    -0.000000000000000     0.000000030000000
1 115
     0.000000030000000    -0.000000000000000    -0.000000000000000
    -0.000000000000000     0.000000030000000    -0.000000000000000
    -0.000000000000000    -0.000000000000000     0.000000030000000
1 116
    -0.000000970000000    -0.000000000000000    -0.000000000000000
    -0.000000000000000     0.000005030000000     0.000003000000000
    -0.000000000000000     0.000003000000000     0.000001030000000
1 117
     0.000000030000000    -0.000000000000000    -0.000000000000000
    -0.000000000000000     0.000000030000000    -0.000000000000000
    -0.000000000000000    -0.000000000000000     0.000000030000000
1 118
     0.000000030000000    -0.000000000000000    -0.000000000000000
    -0.000000000000000     0.000000030000000    -0.000000000000000
    -0.000000000000000    -0.000000000000000     0.000000030000000
1 119
     0.000000030000000    -0.000000000000000    -0.000000000000000
    -0.000000000000000     0.000000030000000    -0.000000000000000
    -0.000000000000000    -0.000000000000000     0.000000030000000
1 120
     0.000000030000000    -0.000000000000000    -0.000000000000000
    -0.000000000000000     0.000000030000000    -0.000000000000000
    -0.000000000000000    -0.000000000000000     0.000000030000000
1 121
    -0.000033970000000    -0.000000000000000    -0.000000000000000
    -0.000000000000000     0.000100530000000     0.000134500000000
    -0.000000000000000     0.000134500000000     0.000100530000000
1 122
     0.000011030000000    -0.000018000000000    -0.000018000000000
    -0.000018000000000     0.000011030000000     0.000018000000000
    -0.000018000000000     0.000018000000000     0.000011030000000
1 123
     0.000000030000000    -0.000000000000000    -0.000000000000000
    -0.000000000000000     0.000000030000000    -0.000000000000000
    -0.000000000000000    -0.000000000000000     0.000000030000000
1 124
     0.000000030000000    -0.000000000000000    -0.000000000000000
    -0.000000000000000     0.000000030000000    -0.000000000000000
    -0.000000000000000    -0.000000000000000     0.000000030000000
1 125
     0.000011030000000     0.000018000000000     0.000018000000000
     0.000018000000000     0.000011030000000     0.000018000000000
     0.000018000000000     0.000018000000000     0.000011030000000
1 126
     0.000292030000000    -0.000000000000000    -0.000000000000000
    -0.000000000000000    -0.028335970000000    -0.028629500000000
    -0.000000000000000    -0.028629500000000    -0.028335970000000
1 127
     0.000439030000000     0.000272500000000     0.000272500000000
     0.000272000000000     0.000031030000000     0.000136000000000
     0.000272000000000     0.000136000000000     0.000031030000000
1 128
     0.000008030000000     0.000002000000000     0.000002000000000
     0.000002000000000    -0.000000970000000     0.000001000000000
     0.000002000000000     0.000001000000000    -0.000000970000000
1 129
     0.000008030000000    -0.000002000000000    -0.000002000000000
    -0.000002000000000    -0.000000970000000     0.000001000000000
    -0.000002000000000     0.000001000000000    -0.000000970000000
1 130
     0.000439030000000    -0.000272500000000    -0.000272500000000
    -0.000272000000000     0.000031030000000     0.000136000000000
    -0.000272000000000     0.000136000000000     0.000031030000000
1 131
    -0.000013970000000    -0.000000000000000    -0.000000000000000
    -0.000000000000000     0.000086530000000     0.000033500000000
    -0.000000000000000     0.000034000000000    -0.000002970000000
1 132
     0.000005030000000     0.000013000000000     0.000004000000000
     0.000013000000000     0.000015030000000     0.000006000000000
     0.000004000000000     0.000006000000000    -0.000001970000000
1 133
     0.000000030000000    -0.000000000000000    -0.000000000000000
    -0.000000000000000     0.000000030000000    -0.000000000000000
    -0.000000000000000    -0.000000000000000     0.000000030000000
1 134
     0.000000030000000    -0.000000000000000    -0.000000000000000
    -0.000000000000000     0.000000030000000    -0.000000000000000
    -0.000000000000000    -0.000000000000000     0.000000030000000
1 135
     0.000005030000000    -0.000013000000000    -0.000004000000000
    -0.000013000000000     0.000015030000000     0.000006000000000
    -0.000004000000000     0.000006000000000    -0.000001970000000
1 136
     0.000000030000000    -0.000000000000000    -0.000000000000000
    -0.000000000000000     0.000000030000000    -0.000000000000000
    -0.000000000000000    -0.000000000000000     0.000000030000000
1 137
     0.000000030000000    -0.000000000000000    -0.000000000000000
    -0.000000000000000     0.000000030000000    -0.000000000000000
    -0.000000000000000    -0.000000000000000     0.000000030000000
1 138
     0.000000030000000    -0.000000000000000    -0.000000000000000
    -0.000000000000000     0.000000030000000    -0.000000000000000
    -0.000000000000000    -0.000000000000000     0.000000030000000
1 139
     0.000000030000000    -0.000000000000000    -0.000000000000000
    -0.000000000000000     0.000000030000000    -0.000000000000000
    -0.000000000000000    -0.000000000000000     0.000000030000000
1 140
     0.000000030000000    -0.000000000000000    -0.000000000000000
    -0.000000000000000     0.000000030000000    -0.000000000000000
    -0.000000000000000    -0.000000000000000     0.000000030000000
1 141
    -0.000013970000000    -0.000000000000000    -0.000000000000000
    -0.000000000000000     0.000086530000000    -0.000033500000000
    -0.000000000000000    -0.000034000000000    -0.000002970000000
1 142
     0.000005030000000    -0.000013000000000     0.000004000000000
    -0.000013000000000     0.000015030000000    -0.000006000000000
     0.000004000000000    -0.000006000000000    -0.000001970000000
1 143
     0.000000030000000    -0.000000000000000    -0.000000000000000