ITEM: TIMESTEP
0
ITEM: NUMBER OF ATOMS
500
ITEM: BOX BOUNDS xy xz yz pp pp pp
0.0000000000000000e+00 2.6880000000000003e+01 1.6459252980540428e-15
0.0000000000000000e+00 2.6880000000000006e+01 1.6459252980540428e-15
0.0000000000000000e+00 2.6880000000000003e+01 2.9842794901924211e-15
ITEM: ATOMS id type x y z fx fy fz
1 1      0.00707107      0.00707107      0.00000000     -0.00152589     -0.00152589      0.00000000
2 1      5.37600000      0.00000000      0.00000000     -0.00002091      0.00000344      0.00000000
6 1      0.00000000      5.37600000      0.00000000      0.00000344     -0.00002091      0.00000000
7 1      5.37600000      5.37600000      0.00000000     -0.00000167     -0.00000167      0.00000000
26 1      0.00000000      0.00000000      5.37600000      0.00000341      0.00000341      0.00000003
27 1      5.37600000      0.00000000      5.37600000     -0.00000071      0.00000024     -0.00000095
31 1      0.00000000      5.37600000      5.37600000      0.00000024     -0.00000071     -0.00000095
32 1      5.37600000      5.37600000      5.37600000     -0.00000021     -0.00000021     -0.00000026
126 2      0.00000000      2.68800000      2.68800000     -0.00000260      0.00020240      0.00020500
127 2      5.37600000      2.68800000      2.68800000     -0.00000505     -0.00000215     -0.00000290
131 2      0.00000000      8.06400000      2.68800000      0.00000010     -0.00000061     -0.00000024
132 2      5.37600000      8.06400000      2.68800000     -0.00000012     -0.00000020     -0.00000007
151 2      0.00000000      2.68800000      8.06400000      0.00000010      0.00000002     -0.00000024
152 2      5.37600000      2.68800000      8.06400000     -0.00000006     -0.00000002     -0.00000013
156 2      0.00000000      8.06400000      8.06400000      0.00000001     -0.00000003     -0.00000004
157 2      5.37600000      8.06400000      8.06400000     -0.00000001     -0.00000002     -0.00000002
251 1      2.68800000      0.00000000      2.68800000      0.00020240     -0.00000260      0.00020500
252 1      8.06400000      0.00000000      2.68800000     -0.00000061      0.00000010     -0.00000024
256 1      2.68800000      5.37600000      2.68800000     -0.00000215     -0.00000505     -0.00000290
257 1      8.06400000      5.37600000      2.68800000     -0.00000020     -0.00000012     -0.00000007
276 1      2.68800000      0.00000000      8.06400000      0.00000002      0.00000010     -0.00000024
277 1      8.06400000      0.00000000      8.06400000     -0.00000003      0.00000001     -0.00000004
281 1      2.68800000      5.37600000      8.06400000     -0.00000002     -0.00000006     -0.00000013
282 1      8.06400000      5.37600000      8.06400000     -0.00000002     -0.00000001     -0.00000002
376 2      2.68800000      2.68800000      0.00000000      0.00041378      0.00041378      0.00000000
377 2      8.06400000      2.68800000      0.00000000     -0.00000085     -0.00000022      0.00000000
381 2      2.68800000      8.06400000      0.00000000     -0.00000022     -0.00000085      0.00000000
382 2      8.06400000      8.06400000      0.00000000     -0.00000007     -0.00000007      0.00000000
401 2      2.68800000      2.68800000      5.37600000     -0.00000118     -0.00000118     -0.00000386
402 2      8.06400000      2.68800000      5.37600000     -0.00000015     -0.00000003     -0.00000012
406 2      2.68800000      8.06400000      5.37600000     -0.00000003     -0.00000015     -0.00000012
407 2      8.06400000      8.06400000      5.37600000     -0.00000002     -0.00000002     -0.00000002
3 1     10.75200000      0.00000000      0.00000000     -0.00000011      0.00000002      0.00000000
4 1     16.12800000      0.00000000      0.00000000     -0.00000011      0.00000002      0.00000000
8 1     10.75200000      5.37600000      0.00000000     -0.00000005     -0.00000002      0.00000000
9 1     16.12800000      5.37600000      0.00000000     -0.00000001      0.00000002      0.00000000
28 1     10.75200000      0.00000000      5.37600000     -0.00000003      0.00000001     -0.00000002
29 1     16.12800000      0.00000000      5.37600000     -0.00000003      0.00000001      0.00000002
33 1     10.75200000      5.37600000      5.37600000     -0.00000000      0.00000000      0.00000000
34 1     16.12800000      5.37600000      5.37600000     -0.00000000      0.00000000      0.00000000
128 2     10.75200000      2.68800000      2.68800000     -0.00000008     -0.00000001     -0.00000002
129 2     16.12800000      2.68800000      2.68800000     -0.00000004      0.00000002      0.00000001
133 2     10.75200000      8.06400000      2.68800000     -0.00000000      0.00000000     -0.00000000
134 2     16.12800000      8.06400000      2.68800000     -0.00000000      0.00000000     -0.00000000
153 2     10.75200000      2.68800000      8.06400000     -0.00000000     -0.00000000     -0.00000000
154 2     16.12800000      2.68800000      8.06400000     -0.00000000     -0.00000000     -0.00000000
158 2     10.75200000      8.06400000      8.06400000     -0.00000000     -0.00000000      0.00000000
159 2     16.12800000      8.06400000      8.06400000     -0.00000000     -0.00000000      0.00000000
253 1     13.44000000      0.00000000      2.68800000      0.00000000      0.00000000     -0.00000000
258 1     13.44000000      5.37600000      2.68800000      0.00000000      0.00000000     -0.00000000
278 1     13.44000000      0.00000000      8.06400000      0.00000000      0.00000000      0.00000000
283 1     13.44000000      5.37600000      8.06400000      0.00000000      0.00000000      0.00000000
378 2     13.44000000      2.68800000      0.00000000      0.00000000     -0.00000000      0.00000000
383 2     13.44000000      8.06400000      0.00000000      0.00000000      0.00000000      0.00000000
403 2     13.44000000      2.68800000      5.37600000      0.00000000      0.00000000      0.00000000
408 2     13.44000000      8.06400000      5.37600000      0.00000000      0.00000000      0.00000000
5 1     21.50400000      0.00000000      0.00000000     -0.00002077      0.00000338      0.00000000
10 1     21.50400000      5.37600000      0.00000000      0.00000024      0.00000024      0.00000000
30 1     21.50400000      0.00000000      5.37600000     -0.00000071      0.00000024      0.00000095
35 1     21.50400000      5.37600000      5.37600000      0.00000005      0.00000005      0.00000000
130 2     21.50400000      2.68800000      2.68800000     -0.00000118      0.00000170      0.00000096
135 2     21.50400000      8.06400000      2.68800000      0.00000006     -0.00000002     -0.00000001
155 2     21.50400000      2.68800000      8.06400000     -0.00000000      0.00000004      0.00000004
160 2     21.50400000      8.06400000      8.06400000      0.00000001     -0.00000000     -0.00000000
254 1     18.81600000      0.00000000      2.68800000     -0.00000061      0.00000010      0.00000024
255 1     24.19200000      0.00000000      2.68800000      0.00019829     -0.00000154     -0.00019983
259 1     18.81600000      5.37600000      2.68800000     -0.00000002      0.00000006      0.00000001
260 1     24.19200000      5.37600000      2.68800000      0.00000171     -0.00000118     -0.00000096
279 1     18.81600000      0.00000000      8.06400000     -0.00000003      0.00000001      0.00000004
280 1     24.19200000      0.00000000      8.06400000      0.00000002      0.00000010      0.00000024
284 1     18.81600000      5.37600000      8.06400000     -0.00000000      0.00000001      0.00000000
285 1     24.19200000      5.37600000      8.06400000      0.00000004     -0.00000000     -0.00000004
379 2     18.81600000      2.68800000      0.00000000     -0.00000037      0.00000026      0.00000000
380 2     24.19200000      2.68800000      0.00000000     -0.00000153     -0.00000259      0.00000000
384 2     18.81600000      8.06400000      0.00000000      0.00000001      0.00000001      0.00000000
385 2     24.19200000      8.06400000      0.00000000      0.00000026     -0.00000037      0.00000000
404 2     18.81600000      2.68800000      5.37600000     -0.00000006      0.00000006      0.00000006
405 2     24.19200000      2.68800000      5.37600000      0.00000074      0.00000075      0.00000001
409 2     18.81600000      8.06400000      5.37600000      0.00000000      0.00000000      0.00000000
410 2     24.19200000      8.06400000      5.37600000      0.00000006     -0.00000006     -0.00000006
11 1      0.00000000     10.75200000      0.00000000      0.00000002     -0.00000011      0.00000000
12 1      5.37600000     10.75200000      0.00000000     -0.00000002     -0.00000005      0.00000000
16 1      0.00000000     16.12800000      0.00000000      0.00000002     -0.00000011      0.00000000
17 1      5.37600000     16.12800000      0.00000000      0.00000002     -0.00000001      0.00000000
36 1      0.00000000     10.75200000      5.37600000      0.00000001     -0.00000003     -0.00000002
37 1      5.37600000     10.75200000      5.37600000     -0.00000000      0.00000000      0.00000000
41 1      0.00000000     16.12800000      5.37600000      0.00000001     -0.00000003      0.00000002
42 1      5.37600000     16.12800000      5.37600000      0.00000000      0.00000000     -0.00000000
136 2      0.00000000     13.44000000      2.68800000      0.00000000      0.00000000      0.00000000
137 2      5.37600000     13.44000000      2.68800000     -0.00000000      0.00000000     -0.00000000
161 2      0.00000000     13.44000000      8.06400000      0.00000000     -0.00000000     -0.00000000
162 2      5.37600000     13.44000000      8.06400000     -0.00000000     -0.00000000      0.00000000
261 1      2.68800000     10.75200000      2.68800000     -0.00000001     -0.00000008     -0.00000002
262 1      8.06400000     10.75200000      2.68800000      0.00000000     -0.00000000     -0.00000000
266 1      2.68800000     16.12800000      2.68800000      0.00000002     -0.00000004      0.00000001
267 1      8.06400000     16.12800000      2.68800000     -0.00000000     -0.00000000     -0.00000000
286 1      2.68800000     10.75200000      8.06400000      0.00000000      0.00000000      0.00000000
287 1      8.06400000     10.75200000      8.06400000      0.00000000      0.00000000      0.00000000
291 1      2.68800000     16.12800000      8.06400000      0.00000000      0.00000000     -0.00000000
292 1      8.06400000     16.12800000      8.06400000     -0.00000000      0.00000000     -0.00000000
386 2      2.68800000     13.44000000      0.00000000     -0.00000000      0.00000000      0.00000000
387 2      8.06400000     13.44000000      0.00000000      0.00000000      0.00000000      0.00000000
411 2      2.68800000     13.44000000      5.37600000     -0.00000000      0.00000000      0.00000000
412 2      8.06400000     13.44000000      5.37600000      0.00000000      0.00000000     -0.00000000
13 1     10.75200000     10.75200000      0.00000000     -0.00000000      0.00000000      0.00000000
14 1     16.12800000     10.75200000      0.00000000     -0.00000000      0.00000000      0.00000000
18 1     10.75200000     16.12800000      0.00000000      0.00000000     -0.00000000      0.00000000
19 1     16.12800000     16.12800000      0.00000000      0.00000000     -0.00000000      0.00000000
38 1     10.75200000     10.75200000      5.37600000     -0.00000000      0.00000000      0.00000000
39 1     16.12800000     10.75200000      5.37600000     -0.00000000      0.00000000      0.00000000
43 1     10.75200000     16.12800000      5.37600000      0.00000000     -0.00000000     -0.00000000
44 1     16.12800000     16.12800000      5.37600000      0.00000000     -0.00000000     -0.00000000
138 2     10.75200000     13.44000000      2.68800000     -0.00000000      0.00000000     -0.00000000
139 2     16.12800000     13.44000000      2.68800000     -0.00000000      0.00000000     -0.00000000
163 2     10.75200000     13.44000000      8.06400000     -0.00000000     -0.00000000     -0.00000000
164 2     16.12800000     13.44000000      8.06400000     -0.00000000     -0.00000000     -0.00000000
263 1     13.44000000     10.75200000      2.68800000      0.00000000     -0.00000000     -0.00000000
268 1     13.44000000     16.12800000      2.68800000     -0.00000000     -0.00000000     -0.00000000
288 1     13.44000000     10.75200000      8.06400000      0.00000000      0.00000000      0.00000000
293 1     13.44000000     16.12800000      8.06400000     -0.00000000      0.00000000     -0.00000000
388 2     13.44000000     13.44000000      0.00000000      0.00000000      0.00000000      0.00000000
413 2     13.44000000     13.44000000      5.37600000      0.00000000      0.00000000     -0.00000000
15 1     21.50400000     10.75200000      0.00000000      0.00000002     -0.00000001      0.00000000
20 1     21.50400000     16.12800000      0.00000000     -0.00000002     -0.00000005      0.00000000
40 1     21.50400000     10.75200000      5.37600000      0.00000000      0.00000000      0.00000000
45 1     21.50400000     16.12800000      5.37600000      0.00000000     -0.00000000     -0.00000000
140 2     21.50400000     13.44000000      2.68800000      0.00000000      0.00000000     -0.00000000
165 2     21.50400000     13.44000000      8.06400000      0.00000000     -0.00000000     -0.00000000
264 1     18.81600000     10.75200000      2.68800000      0.00000000     -0.00000000     -0.00000000
265 1     24.19200000     10.75200000      2.68800000      0.00000002     -0.00000004     -0.00000001
269 1     18.81600000     16.12800000      2.68800000      0.00000000     -0.00000000     -0.00000000
270 1     24.19200000     16.12800000      2.68800000     -0.00000001     -0.00000007      0.00000002
289 1     18.81600000     10.75200000      8.06400000      0.00000000      0.00000000      0.00000000
290 1     24.19200000     10.75200000      8.06400000     -0.00000000      0.00000000      0.00000000
294 1     18.81600000     16.12800000      8.06400000      0.00000000      0.00000000     -0.00000000
295 1     24.19200000     16.12800000      8.06400000     -0.00000000      0.00000000     -0.00000000
389 2     18.81600000     13.44000000      0.00000000      0.00000000      0.00000000      0.00000000
390 2     24.19200000     13.44000000      0.00000000     -0.00000000      0.00000000      0.00000000
414 2     18.81600000     13.44000000      5.37600000      0.00000000      0.00000000     -0.00000000
415 2     24.19200000     13.44000000      5.37600000     -0.00000000      0.00000000     -0.00000000
21 1      0.00000000     21.50400000      0.00000000      0.00000338     -0.00002077      0.00000000
22 1      5.37600000     21.50400000      0.00000000      0.00000024      0.00000024      0.00000000
46 1      0.00000000     21.50400000      5.37600000      0.00000024     -0.00000071      0.00000095
47 1      5.37600000     21.50400000      5.37600000      0.00000005      0.00000005      0.00000000
141 2      0.00000000     18.81600000      2.68800000      0.00000010     -0.00000061      0.00000024
142 2      5.37600000     18.81600000      2.68800000      0.00000006     -0.00000002      0.00000001
146 2      0.00000000     24.19200000      2.68800000     -0.00000154      0.00019829     -0.00019983
147 2      5.37600000     24.19200000      2.68800000     -0.00000118      0.00000171     -0.00000096
166 2      0.00000000     18.81600000      8.06400000      0.00000001     -0.00000003      0.00000004
167 2      5.37600000     18.81600000      8.06400000      0.00000001     -0.00000000      0.00000000
171 2      0.00000000     24.19200000      8.06400000      0.00000010      0.00000002      0.00000024
172 2      5.37600000     24.19200000      8.06400000     -0.00000000      0.00000004     -0.00000004
271 1      2.68800000     21.50400000      2.68800000      0.00000170     -0.00000118      0.00000096
272 1      8.06400000     21.50400000      2.68800000     -0.00000002      0.00000006     -0.00000001
296 1      2.68800000     21.50400000      8.06400000      0.00000004     -0.00000000      0.00000004
297 1      8.06400000     21.50400000      8.06400000     -0.00000000      0.00000001     -0.00000000
391 2      2.68800000     18.81600000      0.00000000      0.00000026     -0.00000037      0.00000000
392 2      8.06400000     18.81600000      0.00000000      0.00000001      0.00000001      0.00000000
396 2      2.68800000     24.19200000      0.00000000     -0.00000259     -0.00000153      0.00000000
397 2      8.06400000     24.19200000      0.00000000     -0.00000037      0.00000026      0.00000000
416 2      2.68800000     18.81600000      5.37600000      0.00000006     -0.00000006      0.00000006
417 2      8.06400000     18.81600000      5.37600000      0.00000000      0.00000000      0.00000000
421 2      2.68800000     24.19200000      5.37600000      0.00000075      0.00000074      0.00000001
422 2      8.06400000     24.19200000      5.37600000     -0.00000006      0.00000006     -0.00000006
23 1     10.75200000     21.50400000      0.00000000     -0.00000001      0.00000002      0.00000000
24 1     16.12800000     21.50400000      0.00000000     -0.00000005     -0.00000002      0.00000000
48 1     10.75200000     21.50400000      5.37600000      0.00000000      0.00000000     -0.00000000
49 1     16.12800000     21.50400000      5.37600000      0.00000000      0.00000000     -0.00000000
143 2     10.75200000     18.81600000      2.68800000      0.00000000      0.00000000     -0.00000000
144 2     16.12800000     18.81600000      2.68800000      0.00000000      0.00000000     -0.00000000
148 2     10.75200000     24.19200000      2.68800000     -0.00000004      0.00000002     -0.00000001
149 2     16.12800000     24.19200000      2.68800000     -0.00000007     -0.00000001      0.00000002
168 2     10.75200000     18.81600000      8.06400000      0.00000000      0.00000000      0.00000000
169 2     16.12800000     18.81600000      8.06400000      0.00000000      0.00000000      0.00000000
173 2     10.75200000     24.19200000      8.06400000      0.00000000     -0.00000000     -0.00000000
174 2     16.12800000     24.19200000      8.06400000      0.00000000     -0.00000000     -0.00000000
273 1     13.44000000     21.50400000      2.68800000     -0.00000000      0.00000000     -0.00000000
298 1     13.44000000     21.50400000      8.06400000     -0.00000000      0.00000000      0.00000000
393 2     13.44000000     18.81600000      0.00000000     -0.00000000      0.00000000      0.00000000
398 2     13.44000000     24.19200000      0.00000000     -0.00000000     -0.00000000      0.00000000
418 2     13.44000000     18.81600000      5.37600000     -0.00000000      0.00000000     -0.00000000
423 2     13.44000000     24.19200000      5.37600000     -0.00000000     -0.00000000      0.00000000
25 1     21.50400000     21.50400000      0.00000000     -0.00000165     -0.00000165      0.00000000
50 1     21.50400000     21.50400000      5.37600000     -0.00000021     -0.00000021      0.00000025
145 2     21.50400000     18.81600000      2.68800000     -0.00000012     -0.00000020      0.00000007
150 2     21.50400000     24.19200000      2.68800000     -0.00000501     -0.00000213      0.00000287
170 2     21.50400000     18.81600000      8.06400000     -0.00000001     -0.00000002      0.00000002
175 2     21.50400000     24.19200000      8.06400000     -0.00000006     -0.00000002      0.00000013
274 1     18.81600000     21.50400000      2.68800000     -0.00000020     -0.00000012      0.00000007
275 1     24.19200000     21.50400000      2.68800000     -0.00000213     -0.00000501      0.00000287
299 1     18.81600000     21.50400000      8.06400000     -0.00000002     -0.00000001      0.00000002
300 1     24.19200000     21.50400000      8.06400000     -0.00000002     -0.00000006      0.00000013
394 2     18.81600000     18.81600000      0.00000000     -0.00000007     -0.00000007      0.00000000
395 2     24.19200000     18.81600000      0.00000000     -0.00000022     -0.00000085      0.00000000
399 2     18.81600000     24.19200000      0.00000000     -0.00000085     -0.00000022      0.00000000
400 2     24.19200000     24.19200000      0.00000000      0.00039202      0.00039202      0.00000000
419 2     18.81600000     18.81600000      5.37600000     -0.00000002     -0.00000002      0.00000002
420 2     24.19200000     18.81600000      5.37600000     -0.00000003     -0.00000015      0.00000012
424 2     18.81600000     24.19200000      5.37600000     -0.00000015     -0.00000003      0.00000012
425 2     24.19200000     24.19200000      5.37600000     -0.00000118     -0.00000118      0.00000384
51 1      0.00000000      0.00000000     10.75200000      0.00000002      0.00000002      0.00000000
52 1      5.37600000      0.00000000     10.75200000     -0.00000000      0.00000001     -0.00000002
56 1      0.00000000      5.37600000     10.75200000      0.00000001     -0.00000000     -0.00000002
57 1      5.37600000      5.37600000     10.75200000     -0.00000000      0.00000000     -0.00000000
76 1      0.00000000      0.00000000     16.12800000      0.00000002      0.00000002     -0.00000000
77 1      5.37600000      0.00000000     16.12800000     -0.00000000      0.00000001      0.00000002
81 1      0.00000000      5.37600000     16.12800000      0.00000001     -0.00000000      0.00000002
82 1      5.37600000      5.37600000     16.12800000      0.00000000      0.00000000     -0.00000000
176 2      0.00000000      2.68800000     13.44000000      0.00000000      0.00000000      0.00000000
177 2      5.37600000      2.68800000     13.44000000     -0.00000000      0.00000000      0.00000000
181 2      0.00000000      8.06400000     13.44000000      0.00000000     -0.00000000      0.00000000
182 2      5.37600000      8.06400000     13.44000000     -0.00000000     -0.00000000      0.00000000
301 1      2.68800000      0.00000000     13.44000000     -0.00000000      0.00000000      0.00000000
302 1      8.06400000      0.00000000     13.44000000      0.00000000      0.00000000      0.00000000
306 1      2.68800000      5.37600000     13.44000000     -0.00000000      0.00000000      0.00000000
307 1      8.06400000      5.37600000     13.44000000      0.00000000     -0.00000000      0.00000000
426 2      2.68800000      2.68800000     10.75200000      0.00000000      0.00000000     -0.00000003
427 2      8.06400000      2.68800000     10.75200000      0.00000000     -0.00000000     -0.00000000
431 2      2.68800000      8.06400000     10.75200000      0.00000000     -0.00000000     -0.00000000
432 2      8.06400000      8.06400000     10.75200000      0.00000000     -0.00000000     -0.00000000
451 2      2.68800000      2.68800000     16.12800000      0.00000000      0.00000000      0.00000003
452 2      8.06400000      2.68800000     16.12800000     -0.00000000      0.00000000     -0.00000000
456 2      2.68800000      8.06400000     16.12800000      0.00000000     -0.00000000     -0.00000000
457 2      8.06400000      8.06400000     16.12800000     -0.00000000     -0.00000000     -0.00000000
53 1     10.75200000      0.00000000     10.75200000      0.00000000      0.00000000     -0.00000000
54 1     16.12800000      0.00000000     10.75200000     -0.00000000      0.00000000     -0.00000000
58 1     10.75200000      5.37600000     10.75200000     -0.00000000      0.00000000     -0.00000000
59 1     16.12800000      5.37600000     10.75200000     -0.00000000      0.00000000     -0.00000000
78 1     10.75200000      0.00000000     16.12800000      0.00000000      0.00000000     -0.00000000
79 1     16.12800000      0.00000000     16.12800000      0.00000000      0.00000000     -0.00000000
83 1     10.75200000      5.37600000     16.12800000      0.00000000      0.00000000     -0.00000000
84 1     16.12800000      5.37600000     16.12800000      0.00000000      0.00000000     -0.00000000
178 2     10.75200000      2.68800000     13.44000000     -0.00000000      0.00000000      0.00000000
179 2     16.12800000      2.68800000     13.44000000     -0.00000000      0.00000000      0.00000000
183 2     10.75200000      8.06400000     13.44000000     -0.00000000     -0.00000000      0.00000000
184 2     16.12800000      8.06400000     13.44000000     -0.00000000     -0.00000000     -0.00000000
303 1     13.44000000      0.00000000     13.44000000      0.00000000      0.00000000      0.00000000
308 1     13.44000000      5.37600000     13.44000000      0.00000000      0.00000000      0.00000000
428 2     13.44000000      2.68800000     10.75200000      0.00000000     -0.00000000     -0.00000000
433 2     13.44000000      8.06400000     10.75200000      0.00000000     -0.00000000     -0.00000000
453 2     13.44000000      2.68800000     16.12800000     -0.00000000      0.00000000     -0.00000000
458 2     13.44000000      8.06400000     16.12800000     -0.00000000     -0.00000000     -0.00000000
55 1     21.50400000      0.00000000     10.75200000     -0.00000000      0.00000001      0.00000002
60 1     21.50400000      5.37600000     10.75200000      0.00000000      0.00000000     -0.00000000
80 1     21.50400000      0.00000000     16.12800000     -0.00000000      0.00000001     -0.00000002
85 1     21.50400000      5.37600000     16.12800000      0.00000000      0.00000000     -0.00000000
180 2     21.50400000      2.68800000     13.44000000      0.00000000      0.00000000      0.00000000
185 2     21.50400000      8.06400000     13.44000000      0.00000000     -0.00000000      0.00000000
304 1     18.81600000      0.00000000     13.44000000      0.00000000      0.00000000      0.00000000
305 1     24.19200000      0.00000000     13.44000000     -0.00000000      0.00000000      0.00000000
309 1     18.81600000      5.37600000     13.44000000      0.00000000      0.00000000      0.00000000
310 1     24.19200000      5.37600000     13.44000000     -0.00000000      0.00000000      0.00000000
429 2     18.81600000      2.68800000     10.75200000      0.00000000     -0.00000000     -0.00000000
430 2     24.19200000      2.68800000     10.75200000      0.00000001      0.00000001      0.00000000
434 2     18.81600000      8.06400000     10.75200000      0.00000000     -0.00000000     -0.00000000
435 2     24.19200000      8.06400000     10.75200000     -0.00000000     -0.00000000     -0.00000000
454 2     18.81600000      2.68800000     16.12800000      0.00000000      0.00000000     -0.00000000
455 2     24.19200000      2.68800000     16.12800000      0.00000001      0.00000001     -0.00000000
459 2     18.81600000      8.06400000     16.12800000      0.00000000     -0.00000000     -0.00000000
460 2     24.19200000      8.06400000     16.12800000     -0.00000000     -0.00000000     -0.00000000
61 1      0.00000000     10.75200000     10.75200000      0.00000000      0.00000000     -0.00000000
62 1      5.37600000     10.75200000     10.75200000     -0.00000000      0.00000000     -0.00000000
66 1      0.00000000     16.12800000     10.75200000      0.00000000      0.00000000     -0.00000000
67 1      5.37600000     16.12800000     10.75200000     -0.00000000      0.00000000     -0.00000000
86 1      0.00000000     10.75200000     16.12800000      0.00000000      0.00000000     -0.00000000
87 1      5.37600000     10.75200000     16.12800000     -0.00000000      0.00000000     -0.00000000
91 1      0.00000000     16.12800000     16.12800000      0.00000000     -0.00000000     -0.00000000
92 1      5.37600000     16.12800000     16.12800000     -0.00000000     -0.00000000     -0.00000000
186 2      0.00000000     13.44000000     13.44000000      0.00000000      0.00000000      0.00000000
187 2      5.37600000     13.44000000     13.44000000     -0.00000000      0.00000000      0.00000000
311 1      2.68800000     10.75200000     13.44000000      0.00000000      0.00000000      0.00000000
312 1      8.06400000     10.75200000     13.44000000      0.00000000      0.00000000      0.00000000
316 1      2.68800000     16.12800000     13.44000000      0.00000000     -0.00000000      0.00000000
317 1      8.06400000     16.12800000     13.44000000      0.00000000      0.00000000      0.00000000
436 2      2.68800000     13.44000000     10.75200000      0.00000000     -0.00000000     -0.00000000
437 2      8.06400000     13.44000000     10.75200000      0.00000000     -0.00000000     -0.00000000
461 2      2.68800000     13.44000000     16.12800000      0.00000000      0.00000000     -0.00000000
462 2      8.06400000     13.44000000     16.12800000      0.00000000      0.00000000      0.00000000
63 1     10.75200000     10.75200000     10.75200000     -0.00000000      0.00000000     -0.00000000
64 1     16.12800000     10.75200000     10.75200000     -0.00000000      0.00000000     -0.00000000
68 1     10.75200000     16.12800000     10.75200000      0.00000000      0.00000000      0.00000000
69 1     16.12800000     16.12800000     10.75200000      0.00000000      0.00000000     -0.00000000
88 1     10.75200000     10.75200000     16.12800000      0.00000000      0.00000000     -0.00000000
89 1     16.12800000     10.75200000     16.12800000      0.00000000      0.00000000     -0.00000000
93 1     10.75200000     16.12800000     16.12800000      0.00000000     -0.00000000     -0.00000000
94 1     16.12800000     16.12800000     16.12800000      0.00000000     -0.00000000     -0.00000000
188 2     10.75200000     13.44000000     13.44000000      0.00000000      0.00000000      0.00000000
189 2     16.12800000     13.44000000     13.44000000      0.00000000      0.00000000      0.00000000