500  
2    

1    
  0.0070710678118655   0.0070710678118655   0.0000000000000000
  -0.0015258904   -0.0015258904   -0.0000000000
  -0.0000209104    0.0000034396   -0.0000000000
  -0.0000001104    0.0000000196    0.0000000000
  -0.0000001104    0.0000000196    0.0000000000
  -0.0000207704    0.0000033796   -0.0000000000
   0.0000034396   -0.0000209104   -0.0000000000
  -0.0000016704   -0.0000016704   -0.0000000000
  -0.0000000504   -0.0000000204    0.0000000000
  -0.0000000104    0.0000000196    0.0000000000
   0.0000002396    0.0000002396    0.0000000000
   0.0000000196   -0.0000001104    0.0000000000
  -0.0000000204   -0.0000000504    0.0000000000
  -0.0000000004   -0.0000000004    0.0000000000
  -0.0000000004   -0.0000000004    0.0000000000
   0.0000000196   -0.0000000104    0.0000000000
   0.0000000196   -0.0000001104    0.0000000000
   0.0000000196   -0.0000000104    0.0000000000
  -0.0000000004   -0.0000000004    0.0000000000
  -0.0000000004   -0.0000000004    0.0000000000
  -0.0000000204   -0.0000000504    0.0000000000
   0.0000033796   -0.0000207704   -0.0000000000
   0.0000002396    0.0000002396    0.0000000000
  -0.0000000104    0.0000000196    0.0000000000
  -0.0000000504   -0.0000000204    0.0000000000
  -0.0000016504   -0.0000016504   -0.0000000000
   0.0000034096    0.0000034096    0.0000000300
  -0.0000007104    0.0000002396   -0.0000009500
  -0.0000000304    0.0000000096   -0.0000000200
  -0.0000000304    0.0000000096    0.0000000200
  -0.0000007104    0.0000002396    0.0000009500
   0.0000002396   -0.0000007104   -0.0000009500
  -0.0000002104   -0.0000002104   -0.0000002600
  -0.0000000004   -0.0000000004    0.0000000000
  -0.0000000004   -0.0000000004    0.0000000000
   0.0000000496    0.0000000496    0.0000000000
   0.0000000096   -0.0000000304   -0.0000000200
  -0.0000000004   -0.0000000004    0.0000000000
  -0.0000000004   -0.0000000004    0.0000000000
  -0.0000000004   -0.0000000004    0.0000000000
  -0.0000000004   -0.0000000004    0.0000000000
   0.0000000096   -0.0000000304    0.0000000200
  -0.0000000004   -0.0000000004    0.0000000000
  -0.0000000004   -0.0000000004    0.0000000000
  -0.0000000004   -0.0000000004    0.0000000000
  -0.0000000004   -0.0000000004    0.0000000000
   0.0000002396   -0.0000007104    0.0000009500
   0.0000000496    0.0000000496    0.0000000000
  -0.0000000004   -0.0000000004    0.0000000000
  -0.0000000004   -0.0000000004    0.0000000000
  -0.0000002104   -0.0000002104    0.0000002500
   0.0000000196    0.0000000196    0.0000000000
  -0.0000000004    0.0000000096   -0.0000000200
  -0.0000000004   -0.0000000004    0.0000000000
  -0.0000000004   -0.0000000004    0.0000000000
  -0.0000000004    0.0000000096    0.0000000200
   0.0000000096   -0.0000000004   -0.0000000200
  -0.0000000004   -0.0000000004    0.0000000000
  -0.0000000004   -0.0000000004    0.0000000000
  -0.0000000004   -0.0000000004    0.0000000000
  -0.0000000004   -0.0000000004    0.0000000000
  -0.0000000004   -0.0000000004    0.0000000000
  -0.0000000004   -0.0000000004    0.0000000000
  -0.0000000004   -0.0000000004    0.0000000000
  -0.0000000004   -0.0000000004    0.0000000000
  -0.0000000004   -0.0000000004    0.0000000000
  -0.0000000004   -0.0000000004    0.0000000000
  -0.0000000004   -0.0000000004    0.0000000000
  -0.0000000004   -0.0000000004    0.0000000000
  -0.0000000004   -0.0000000004    0.0000000000
  -0.0000000004   -0.0000000004    0.0000000000
   0.0000000096   -0.0000000004    0.0000000200
  -0.0000000004   -0.0000000004    0.0000000000
  -0.0000000004   -0.0000000004    0.0000000000
  -0.0000000004   -0.0000000004    0.0000000000
  -0.0000000004   -0.0000000004    0.0000000000
   0.0000000196    0.0000000196    0.0000000000
  -0.0000000004    0.0000000096    0.0000000200
  -0.0000000004   -0.0000000004    0.0000000000
  -0.0000000004   -0.0000000004    0.0000000000
  -0.0000000004    0.0000000096   -0.0000000200
   0.0000000096   -0.0000000004    0.0000000200
  -0.0000000004   -0.0000000004    0.0000000000
  -0.0000000004   -0.0000000004    0.0000000000
  -0.0000000004   -0.0000000004    0.0000000000
  -0.0000000004   -0.0000000004    0.0000000000
  -0.0000000004   -0.0000000004    0.0000000000
  -0.0000000004   -0.0000000004    0.0000000000
  -0.0000000004   -0.0000000004    0.0000000000
  -0.0000000004   -0.0000000004    0.0000000000
  -0.0000000004   -0.0000000004    0.0000000000
  -0.0000000004   -0.0000000004    0.0000000000
  -0.0000000004   -0.0000000004    0.0000000000
  -0.0000000004   -0.0000000004    0.0000000000
  -0.0000000004   -0.0000000004    0.0000000000
  -0.0000000004   -0.0000000004    0.0000000000
   0.0000000096   -0.0000000004   -0.0000000200
  -0.0000000004   -0.0000000004    0.0000000000
  -0.0000000004   -0.0000000004    0.0000000000
  -0.0000000004   -0.0000000004    0.0000000000
  -0.0000000004   -0.0000000004    0.0000000000
   0.0000034096    0.0000034096   -0.0000000300
  -0.0000007104    0.0000002396    0.0000009500
  -0.0000000304    0.0000000096    0.0000000200
  -0.0000000304    0.0000000096   -0.0000000200
  -0.0000007104    0.0000002396   -0.0000009500
   0.0000002396   -0.0000007104    0.0000009500
  -0.0000002104   -0.0000002104    0.0000002600
  -0.0000000004   -0.0000000004    0.0000000000
  -0.0000000004   -0.0000000004    0.0000000000
   0.0000000496    0.0000000496    0.0000000000
   0.0000000096   -0.0000000304    0.0000000200
  -0.0000000004   -0.0000000004    0.0000000000
  -0.0000000004   -0.0000000004    0.0000000000
  -0.0000000004   -0.0000000004    0.0000000000
  -0.0000000004   -0.0000000004    0.0000000000
   0.0000000096   -0.0000000304   -0.0000000200
  -0.0000000004   -0.0000000004    0.0000000000
  -0.0000000004   -0.0000000004    0.0000000000
  -0.0000000004   -0.0000000004    0.0000000000
  -0.0000000004   -0.0000000004    0.0000000000
   0.0000002396   -0.0000007104   -0.0000009500
   0.0000000496    0.0000000496    0.0000000000
  -0.0000000004   -0.0000000004    0.0000000000
  -0.0000000004   -0.0000000004    0.0000000000
  -0.0000002104   -0.0000002104   -0.0000002500
  -0.0000026004    0.0002023996    0.0002050000
  -0.0000050504   -0.0000021504   -0.0000029000
  -0.0000000804   -0.0000000104   -0.0000000200
  -0.0000000404    0.0000000196    0.0000000100
  -0.0000011804    0.0000016996    0.0000009600
   0.0000000996   -0.0000006104   -0.0000002400
  -0.0000001204   -0.0000002004   -0.0000000700
  -0.0000000004   -0.0000000004    0.0000000000
  -0.0000000004   -0.0000000004    0.0000000000
   0.0000000596   -0.0000000204   -0.0000000100
  -0.0000000004   -0.0000000004    0.0000000000
  -0.0000000004   -0.0000000004    0.0000000000
  -0.0000000004   -0.0000000004    0.0000000000
  -0.0000000004   -0.0000000004    0.0000000000
  -0.0000000004   -0.0000000004    0.0000000000
   0.0000000996   -0.0000006104    0.0000002400
   0.0000000596   -0.0000000204    0.0000000100
  -0.0000000004   -0.0000000004    0.0000000000
  -0.0000000004   -0.0000000004    0.0000000000
  -0.0000001204   -0.0000002004    0.0000000700
  -0.0000015404    0.0001982896   -0.0001998300
  -0.0000011804    0.0000017096   -0.0000009600
  -0.0000000404    0.0000000196   -0.0000000100
  -0.0000000704   -0.0000000104    0.0000000200
  -0.0000050104   -0.0000021304    0.0000028700
   0.0000000996    0.0000000196   -0.0000002400
  -0.0000000604   -0.0000000204   -0.0000001300
  -0.0000000004   -0.0000000004    0.0000000000
  -0.0000000004   -0.0000000004    0.0000000000
  -0.0000000004    0.0000000396    0.0000000400
   0.0000000096   -0.0000000304   -0.0000000400
  -0.0000000104   -0.0000000204   -0.0000000200
  -0.0000000004   -0.0000000004    0.0000000000
  -0.0000000004   -0.0000000004    0.0000000000
   0.0000000096   -0.0000000004    0.0000000000
  -0.0000000004   -0.0000000004    0.0000000000
  -0.0000000004   -0.0000000004    0.0000000000
  -0.0000000004   -0.0000000004    0.0000000000
  -0.0000000004   -0.0000000004    0.0000000000
  -0.0000000004   -0.0000000004    0.0000000000
   0.0000000096   -0.0000000304    0.0000000400
   0.0000000096   -0.0000000004    0.0000000000
  -0.0000000004   -0.0000000004    0.0000000000
  -0.0000000004   -0.0000000004    0.0000000000
  -0.0000000104   -0.0000000204    0.0000000200
   0.0000000996    0.0000000196    0.0000002400
  -0.0000000004    0.0000000396   -0.0000000400
  -0.0000000004   -0.0000000004    0.0000000000
  -0.0000000004   -0.0000000004    0.0000000000
  -0.0000000604   -0.0000000204    0.0000001300
  -0.0000000004   -0.0000000004    0.0000000000
  -0.0000000004   -0.0000000004    0.0000000000
  -0.0000000004   -0.0000000004    0.0000000000
  -0.0000000004   -0.0000000004    0.0000000000
  -0.0000000004   -0.0000000004    0.0000000000
  -0.0000000004   -0.0000000004    0.0000000000
  -0.0000000004   -0.0000000004    0.0000000000
  -0.0000000004   -0.0000000004    0.0000000000
  -0.0000000004   -0.0000000004    0.0000000000
  -0.0000000004   -0.0000000004    0.0000000000
  -0.0000000004   -0.0000000004    0.0000000000
  -0.0000000004   -0.0000000004    0.0000000000
  -0.0000000004   -0.0000000004    0.0000000000
  -0.0000000004   -0.0000000004    0.0000000000
  -0.0000000004   -0.0000000004    0.0000000000
  -0.0000000004   -0.0000000004    0.0000000000
  -0.0000000004   -0.0000000004    0.0000000000
  -0.0000000004   -0.0000000004    0.0000000000
  -0.0000000004   -0.0000000004    0.0000000000
  -0.0000000004   -0.0000000004    0.0000000000
  -0.0000000004   -0.0000000004    0.0000000000
  -0.0000000004   -0.0000000004    0.0000000000
  -0.0000000004   -0.0000000004    0.0000000000
  -0.0000000004   -0.0000000004    0.0000000000
  -0.0000000004   -0.0000000004    0.0000000000
   0.0000000996    0.0000000196    0.0000002400
  -0.0000000604   -0.0000000204    0.0000001300
  -0.0000000004   -0.0000000004    0.0000000000
  -0.0000000004   -0.0000000004    0.0000000000
  -0.0000000004    0.0000000396   -0.0000000400
   0.0000000096   -0.0000000304    0.0000000400
  -0.0000000104   -0.0000000204    0.0000000200
  -0.0000000004   -0.0000000004    0.0000000000
  -0.0000000004   -0.0000000004    0.0000000000
   0.0000000096   -0.0000000004    0.0000000000
  -0.0000000004   -0.0000000004    0.0000000000
  -0.0000000004   -0.0000000004    0.0000000000
  -0.0000000004   -0.0000000004    0.0000000000
  -0.0000000004   -0.0000000004    0.0000000000
  -0.0000000004   -0.0000000004    0.0000000000
   0.0000000096   -0.0000000304   -0.0000000400
   0.0000000096   -0.0000000004    0.0000000000
  -0.0000000004   -0.0000000004    0.0000000000
  -0.0000000004   -0.0000000004    0.0000000000
  -0.0000000104   -0.0000000204   -0.0000000200
   0.0000000996    0.0000000196   -0.0000002400
  -0.0000000004    0.0000000396    0.0000000400
  -0.0000000004   -0.0000000004    0.0000000000
  -0.0000000004   -0.0000000004    0.0000000000
  -0.0000000604   -0.0000000204   -0.0000001300
  -0.0000026004    0.0002023996   -0.0002050000
  -0.0000050504   -0.0000021504    0.0000029000
  -0.0000000804   -0.0000000104    0.0000000200
  -0.0000000404    0.0000000196   -0.0000000100
  -0.0000011804    0.0000016996   -0.0000009600
   0.0000000996   -0.0000006104    0.0000002400
  -0.0000001204   -0.0000002004    0.0000000700
  -0.0000000004   -0.0000000004    0.0000000000
  -0.0000000004   -0.0000000004    0.0000000000
   0.0000000596   -0.0000000204    0.0000000100
  -0.0000000004   -0.0000000004    0.0000000000
  -0.0000000004   -0.0000000004    0.0000000000
  -0.0000000004   -0.0000000004    0.0000000000
  -0.0000000004   -0.0000000004    0.0000000000
  -0.0000000004   -0.0000000004    0.0000000000
   0.0000000996   -0.0000006104   -0.0000002400
   0.0000000596   -0.0000000204   -0.0000000100
  -0.0000000004   -0.0000000004    0.0000000000
  -0.0000000004   -0.0000000004    0.0000000000
  -0.0000001204   -0.0000002004   -0.0000000700
  -0.0000015404    0.0001982896    0.0001998300
  -0.0000011804    0.0000017096    0.0000009600
  -0.0000000404    0.0000000196    0.0000000100
  -0.0000000704   -0.0000000104   -0.0000000200
  -0.0000050104   -0.0000021304   -0.0000028700
   0.0002023996   -0.0000026004    0.0002050000
  -0.0000006104    0.0000000996   -0.0000002400
  -0.0000000004   -0.0000000004    0.0000000000
  -0.0000006104    0.0000000996    0.0000002400
   0.0001982896   -0.0000015404   -0.0001998300
  -0.0000021504   -0.0000050504   -0.0000029000
  -0.0000002004   -0.0000001204   -0.0000000700
  -0.0000000004   -0.0000000004    0.0000000000
  -0.0000000204    0.0000000596    0.0000000100
   0.0000017096   -0.0000011804   -0.0000009600
  -0.0000000104   -0.0000000804   -0.0000000200
  -0.0000000004   -0.0000000004    0.0000000000
  -0.0000000004   -0.0000000004    0.0000000000
  -0.0000000004   -0.0000000004    0.0000000000
   0.0000000196   -0.0000000404   -0.0000000100
   0.0000000196   -0.0000000404    0.0000000100
  -0.0000000004   -0.0000000004    0.0000000000
  -0.0000000004   -0.0000000004    0.0000000000
  -0.0000000004   -0.0000000004    0.0000000000
  -0.0000000104   -0.0000000704    0.0000000200
   0.0000016996   -0.0000011804    0.0000009600
  -0.0000000204    0.0000000596   -0.0000000100
  -0.0000000004   -0.0000000004    0.0000000000
  -0.0000002004   -0.0000001204    0.0000000700
  -0.0000021304   -0.0000050104    0.0000028700
   0.0000000196    0.0000000996   -0.0000002400
  -0.0000000304    0.0000000096   -0.0000000400
  -0.0000000004   -0.0000000004    0.0000000000
  -0.0000000304    0.0000000096    0.0000000400
   0.0000000196    0.0000000996    0.0000002400
  -0.0000000204   -0.0000000604   -0.0000001300
  -0.0000000204   -0.0000000104   -0.0000000200
  -0.0000000004   -0.0000000004    0.0000000000
  -0.0000000004    0.0000000096    0.0000000000
   0.0000000396   -0.0000000004   -0.0000000400
  -0.0000000004   -0.0000000004    0.0000000000
  -0.0000000004   -0.0000000004    0.0000000000
  -0.0000000004   -0.0000000004    0.0000000000
  -0.0000000004   -0.0000000004    0.0000000000
  -0.0000000004   -0.0000000004    0.0000000000
  -0.0000000004   -0.0000000004    0.0000000000
  -0.0000000004   -0.0000000004    0.0000000000
  -0.0000000004   -0.0000000004    0.0000000000
  -0.0000000004   -0.0000000004    0.0000000000
  -0.0000000004   -0.0000000004    0.0000000000
   0.0000000396   -0.0000000004    0.0000000400
  -0.0000000004    0.0000000096    0.0000000000
  -0.0000000004   -0.0000000004    0.0000000000
  -0.0000000204   -0.0000000104    0.0000000200
  -0.0000000204   -0.0000000604    0.0000001300
  -0.0000000004   -0.0000000004    0.0000000000
  -0.0000000004   -0.0000000004    0.0000000000
  -0.0000000004   -0.0000000004    0.0000000000
  -0.0000000004   -0.0000000004    0.0000000000
  -0.0000000004   -0.0000000004    0.0000000000
  -0.0000000004   -0.0000000004    0.0000000000
  -0.0000000004   -0.0000000004    0.0000000000
  -0.0000000004   -0.0000000004    0.0000000000
  -0.0000000004   -0.0000000004    0.0000000000
  -0.0000000004   -0.0000000004    0.0000000000
  -0.0000000004   -0.0000000004    0.0000000000
  -0.0000000004   -0.0000000004    0.0000000000
  -0.0000000004   -0.0000000004    0.0000000000
  -0.0000000004   -0.0000000004    0.0000000000
  -0.0000000004   -0.0000000004    0.0000000000
  -0.0000000004   -0.0000000004    0.0000000000
  -0.0000000004   -0.0000000004    0.0000000000
  -0.0000000004   -0.0000000004    0.0000000000
  -0.0000000004   -0.0000000004    0.0000000000
  -0.0000000004   -0.0000000004    0.0000000000
  -0.0000000004   -0.0000000004    0.0000000000
  -0.0000000004   -0.0000000004    0.0000000000
  -0.0000000004   -0.0000000004    0.0000000000
  -0.0000000004   -0.0000000004    0.0000000000
  -0.0000000004   -0.0000000004    0.0000000000
   0.0000000196    0.0000000996    0.0000002400
  -0.0000000304    0.0000000096    0.0000000400
  -0.0000000004   -0.0000000004    0.0000000000
  -0.0000000304    0.0000000096   -0.0000000400
   0.0000000196    0.0000000996   -0.0000002400
  -0.0000000204   -0.0000000604    0.0000001300
  -0.0000000204   -0.0000000104    0.0000000200
  -0.0000000004   -0.0000000004    0.0000000000
  -0.0000000004    0.0000000096    0.0000000000
   0.0000000396   -0.0000000004    0.0000000400
  -0.0000000004   -0.0000000004    0.0000000000
  -0.0000000004   -0.0000000004    0.0000000000
  -0.0000000004   -0.0000000004    0.0000000000
  -0.0000000004   -0.0000000004    0.0000000000
  -0.0000000004   -0.0000000004    0.0000000000
  -0.0000000004   -0.0000000004    0.0000000000
  -0.0000000004   -0.0000000004    0.0000000000
  -0.0000000004   -0.0000000004    0.0000000000
  -0.0000000004   -0.0000000004    0.0000000000
  -0.0000000004   -0.0000000004    0.0000000000
   0.0000000396   -0.0000000004   -0.0000000400
  -0.0000000004    0.0000000096    0.0000000000
  -0.0000000004   -0.0000000004    0.0000000000
  -0.0000000204   -0.0000000104   -0.0000000200
  -0.0000000204   -0.0000000604   -0.0000001300
   0.0002023996   -0.0000026004   -0.0002050000
  -0.0000006104    0.0000000996    0.0000002400
  -0.0000000004   -0.0000000004    0.0000000000
  -0.0000006104    0.0000000996   -0.0000002400
   0.0001982896   -0.0000015404    0.0001998300
  -0.0000021504   -0.0000050504    0.0000029000
  -0.0000002004   -0.0000001204    0.0000000700
  -0.0000000004   -0.0000000004    0.0000000000
  -0.0000000204    0.0000000596   -0.0000000100
   0.0000017096   -0.0000011804    0.0000009600
  -0.0000000104   -0.0000000804    0.0000000200
  -0.0000000004   -0.0000000004    0.0000000000
  -0.0000000004   -0.0000000004    0.0000000000
  -0.0000000004   -0.0000000004    0.0000000000
   0.0000000196   -0.0000000404    0.0000000100
   0.0000000196   -0.0000000404   -0.0000000100
  -0.0000000004   -0.0000000004    0.0000000000
  -0.0000000004   -0.0000000004    0.0000000000
  -0.0000000004   -0.0000000004    0.0000000000
  -0.0000000104   -0.0000000704   -0.0000000200
   0.0000016996   -0.0000011804   -0.0000009600
  -0.0000000204    0.0000000596    0.0000000100
  -0.0000000004   -0.0000000004    0.0000000000
  -0.0000002004   -0.0000001204   -0.0000000700
  -0.0000021304   -0.0000050104   -0.0000028700
   0.0004137796    0.0004137796    0.0000000000
  -0.0000008504   -0.0000002204   -0.0000000000
  -0.0000000004   -0.0000000004    0.0000000000
  -0.0000003704    0.0000002596    0.0000000000
  -0.0000015304   -0.0000025904   -0.0000000000
  -0.0000002204   -0.0000008504   -0.0000000000
  -0.0000000704   -0.0000000704    0.0000000000
  -0.0000000004   -0.0000000004    0.0000000000
   0.0000000096    0.0000000096    0.0000000000
   0.0000002596   -0.0000003704   -0.0000000000
  -0.0000000004   -0.0000000004    0.0000000000
  -0.0000000004   -0.0000000004    0.0000000000
  -0.0000000004   -0.0000000004    0.0000000000
  -0.0000000004   -0.0000000004    0.0000000000
  -0.0000000004   -0.0000000004    0.0000000000
   0.0000002596   -0.0000003704   -0.0000000000
   0.0000000096    0.0000000096    0.0000000000
  -0.0000000004   -0.0000000004    0.0000000000
  -0.0000000704   -0.0000000704    0.0000000000
  -0.0000002204   -0.0000008504   -0.0000000000
  -0.0000025904   -0.0000015304   -0.0000000000
  -0.0000003704    0.0000002596    0.0000000000
  -0.0000000004   -0.0000000004    0.0000000000
  -0.0000008504   -0.0000002204   -0.0000000000
   0.0003920196    0.0003920196    0.0000000000
  -0.0000011804   -0.0000011804   -0.0000038600
  -0.0000001504   -0.0000000304   -0.0000001200
  -0.0000000004   -0.0000000004    0.0000000000
  -0.0000000604    0.0000000596    0.0000000600
   0.0000007396    0.0000007496    0.0000000100
  -0.0000000304   -0.0000001504   -0.0000001200
  -0.0000000204   -0.0000000204   -0.0000000200
  -0.0000000004   -0.0000000004    0.0000000000
  -0.0000000004   -0.0000000004    0.0000000000
   0.0000000596   -0.0000000604   -0.0000000600
  -0.0000000004   -0.0000000004    0.0000000000
  -0.0000000004   -0.0000000004    0.0000000000
  -0.0000000004   -0.0000000004    0.0000000000
  -0.0000000004   -0.0000000004    0.0000000000
  -0.0000000004   -0.0000000004    0.0000000000
   0.0000000596   -0.0000000604    0.0000000600
  -0.0000000004   -0.0000000004    0.0000000000
  -0.0000000004   -0.0000000004    0.0000000000
  -0.0000000204   -0.0000000204    0.0000000200
  -0.0000000304   -0.0000001504    0.0000001200
   0.0000007496    0.0000007396    0.0000000100
  -0.0000000604    0.0000000596   -0.0000000600
  -0.0000000004   -0.0000000004    0.0000000000
  -0.0000001504   -0.0000000304    0.0000001200
  -0.0000011804   -0.0000011804    0.0000038400
  -0.0000000004   -0.0000000004   -0.0000000300
  -0.0000000004   -0.0000000004    0.0000000000
  -0.0000000004   -0.0000000004    0.0000000000
  -0.0000000004   -0.0000000004    0.0000000000
   0.0000000096    0.0000000096    0.0000000000
  -0.0000000004   -0.0000000004    0.0000000000
  -0.0000000004   -0.0000000004    0.0000000000
  -0.0000000004   -0.0000000004    0.0000000000
  -0.0000000004   -0.0000000004    0.0000000000
  -0.0000000004   -0.0000000004    0.0000000000
  -0.0000000004   -0.0000000004    0.0000000000
  -0.0000000004   -0.0000000004    0.0000000000
  -0.0000000004   -0.0000000004    0.0000000000
  -0.0000000004   -0.0000000004    0.0000000000
  -0.0000000004   -0.0000000004    0.0000000000
  -0.0000000004   -0.0000000004    0.0000000000
  -0.0000000004   -0.0000000004    0.0000000000
  -0.0000000004   -0.0000000004    0.0000000000
  -0.0000000004   -0.0000000004    0.0000000000
  -0.0000000004   -0.0000000004    0.0000000000
   0.0000000096    0.0000000096    0.0000000000
  -0.0000000004   -0.0000000004    0.0000000000
  -0.0000000004   -0.0000000004    0.0000000000
  -0.0000000004   -0.0000000004    0.0000000000
  -0.0000000004   -0.0000000004    0.0000000300
  -0.0000000004   -0.0000000004    0.0000000300
  -0.0000000004   -0.0000000004    0.0000000000
  -0.0000000004   -0.0000000004    0.0000000000
  -0.0000000004   -0.0000000004    0.0000000000
   0.0000000096    0.0000000096    0.0000000000
  -0.0000000004   -0.0000000004    0.0000000000
  -0.0000000004   -0.0000000004    0.0000000000
  -0.0000000004   -0.0000000004    0.0000000000
  -0.0000000004   -0.0000000004    0.0000000000
  -0.0000000004   -0.0000000004    0.0000000000
  -0.0000000004   -0.0000000004    0.0000000000
  -0.0000000004   -0.0000000004    0.0000000000
  -0.0000000004   -0.0000000004    0.0000000000
  -0.0000000004   -0.0000000004    0.0000000000
  -0.0000000004   -0.0000000004    0.0000000000
  -0.0000000004   -0.0000000004    0.0000000000
  -0.0000000004   -0.0000000004    0.0000000000
  -0.0000000004   -0.0000000004    0.0000000000
  -0.0000000004   -0.0000000004    0.0000000000
  -0.0000000004   -0.0000000004    0.0000000000
   0.0000000096    0.0000000096    0.0000000000
  -0.0000000004   -0.0000000004    0.0000000000
  -0.0000000004   -0.0000000004    0.0000000000
  -0.0000000004   -0.0000000004    0.0000000000
  -0.0000000004   -0.0000000004   -0.0000000300
  -0.0000011804   -0.0000011804    0.0000038600
  -0.0000001504   -0.0000000304    0.0000001200
  -0.0000000004   -0.0000000004    0.0000000000
  -0.0000000604    0.0000000596   -0.0000000600
   0.0000007396    0.0000007496   -0.0000000100
  -0.0000000304   -0.0000001504    0.0000001200
  -0.0000000204   -0.0000000204    0.0000000200
  -0.0000000004   -0.0000000004    0.0000000000
  -0.0000000004   -0.0000000004    0.0000000000
   0.0000000596   -0.0000000604    0.0000000600
  -0.0000000004   -0.0000000004    0.0000000000
  -0.0000000004   -0.0000000004    0.0000000000
  -0.0000000004   -0.0000000004    0.0000000000
  -0.0000000004   -0.0000000004    0.0000000000
  -0.0000000004   -0.0000000004    0.0000000000
   0.0000000596   -0.0000000604   -0.0000000600
  -0.0000000004   -0.0000000004    0.0000000000
  -0.0000000004   -0.0000000004    0.0000000000
  -0.0000000204   -0.0000000204   -0.0000000200
  -0.0000000304   -0.0000001504   -0.0000001200
   0.0000007496    0.0000007396   -0.0000000100
  -0.0000000604    0.0000000596    0.0000000600
  -0.0000000004   -0.0000000004    0.0000000000
  -0.0000001504   -0.0000000304   -0.0000001200
  -0.0000011804   -0.0000011804   -0.0000038400

126  
  0.0070710678118655   0.0070710678118655   0.0000000000000000
  -0.0000015404    0.0001982896    0.0001998300
  -0.0000011804    0.0000017096    0.0000009600
  -0.0000000404    0.0000000196    0.0000000100
  -0.0000000704   -0.0000000104   -0.0000000200
  -0.0000050104   -0.0000021304   -0.0000028700
  -0.0000026004    0.0002023996   -0.0002050000
  -0.0000050504   -0.0000021504    0.0000029000
  -0.0000000804   -0.0000000104    0.0000000200
  -0.0000000404    0.0000000196   -0.0000000100
  -0.0000011804    0.0000016996   -0.0000009600
   0.0000000996   -0.0000006104    0.0000002400
  -0.0000001204   -0.0000002004    0.0000000700
  -0.0000000004   -0.0000000004   -0.0000000000
  -0.0000000004   -0.0000000004   -0.0000000000
   0.0000000596   -0.0000000204    0.0000000100
  -0.0000000004   -0.0000000004   -0.0000000000
  -0.0000000004   -0.0000000004   -0.0000000000
  -0.0000000004   -0.0000000004   -0.0000000000
  -0.0000000004   -0.0000000004   -0.0000000000
  -0.0000000004   -0.0000000004   -0.0000000000
   0.0000000996   -0.0000006104   -0.0000002400
   0.0000000596   -0.0000000204   -0.0000000100
  -0.0000000004   -0.0000000004   -0.0000000000
  -0.0000000004   -0.0000000004   -0.0000000000
  -0.0000001204   -0.0000002004   -0.0000000700
  -0.0000015404    0.0001982896   -0.0001998300
  -0.0000011804    0.0000017096   -0.0000009600
  -0.0000000404    0.0000000196   -0.0000000100
  -0.0000000704   -0.0000000104    0.0000000200
  -0.0000050104   -0.0000021304    0.0000028700
  -0.0000026004    0.0002023996    0.0002050000
  -0.0000050504   -0.0000021504   -0.0000029000
  -0.0000000804   -0.0000000104   -0.0000000200
  -0.0000000404    0.0000000196    0.0000000100
  -0.0000011804    0.0000016996    0.0000009600
   0.0000000996   -0.0000006104   -0.0000002400
  -0.0000001204   -0.0000002004   -0.0000000700
  -0.0000000004   -0.0000000004   -0.0000000000
  -0.0000000004   -0.0000000004   -0.0000000000
   0.0000000596   -0.0000000204   -0.0000000100
  -0.0000000004   -0.0000000004   -0.0000000000
  -0.0000000004   -0.0000000004   -0.0000000000
  -0.0000000004   -0.0000000004   -0.0000000000
  -0.0000000004   -0.0000000004   -0.0000000000
  -0.0000000004   -0.0000000004   -0.0000000000
   0.0000000996   -0.0000006104    0.0000002400
   0.0000000596   -0.0000000204    0.0000000100
  -0.0000000004   -0.0000000004   -0.0000000000
  -0.0000000004   -0.0000000004   -0.0000000000
  -0.0000001204   -0.0000002004    0.0000000700
   0.0000000996    0.0000000196    0.0000002400
  -0.0000000004    0.0000000396   -0.0000000400
  -0.0000000004   -0.0000000004   -0.0000000000
  -0.0000000004   -0.0000000004   -0.0000000000
  -0.0000000604   -0.0000000204    0.0000001300
   0.0000000996    0.0000000196   -0.0000002400
  -0.0000000604   -0.0000000204   -0.0000001300
  -0.0000000004   -0.0000000004   -0.0000000000
  -0.0000000004   -0.0000000004   -0.0000000000
  -0.0000000004    0.0000000396    0.0000000400
   0.0000000096   -0.0000000304   -0.0000000400
  -0.0000000104   -0.0000000204   -0.0000000200
  -0.0000000004   -0.0000000004   -0.0000000000
  -0.0000000004   -0.0000000004   -0.0000000000
   0.0000000096   -0.0000000004   -0.0000000000
  -0.0000000004   -0.0000000004   -0.0000000000
  -0.0000000004   -0.0000000004   -0.0000000000
  -0.0000000004   -0.0000000004   -0.0000000000
  -0.0000000004   -0.0000000004   -0.0000000000
  -0.0000000004   -0.0000000004   -0.0000000000
   0.0000000096   -0.0000000304    0.0000000400
   0.0000000096   -0.0000000004   -0.0000000000
  -0.0000000004   -0.0000000004   -0.0000000000
  -0.0000000004   -0.0000000004   -0.0000000000
  -0.0000000104   -0.0000000204    0.0000000200
  -0.0000000004   -0.0000000004   -0.0000000000
  -0.0000000004   -0.0000000004   -0.0000000000
  -0.0000000004   -0.0000000004   -0.0000000000
  -0.0000000004   -0.0000000004   -0.0000000000
  -0.0000000004   -0.0000000004   -0.0000000000
  -0.0000000004   -0.0000000004   -0.0000000000
  -0.0000000004   -0.0000000004   -0.0000000000
  -0.0000000004   -0.0000000004   -0.0000000000
  -0.0000000004   -0.0000000004   -0.0000000000
  -0.0000000004   -0.0000000004   -0.0000000000
  -0.0000000004   -0.0000000004   -0.0000000000
  -0.0000000004   -0.0000000004   -0.0000000000
  -0.0000000004   -0.0000000004   -0.0000000000
  -0.0000000004   -0.0000000004   -0.0000000000
  -0.0000000004   -0.0000000004   -0.0000000000
  -0.0000000004   -0.0000000004   -0.0000000000
  -0.0000000004   -0.0000000004   -0.0000000000
  -0.0000000004   -0.0000000004   -0.0000000000
  -0.0000000004   -0.0000000004   -0.0000000000
  -0.0000000004   -0.0000000004   -0.0000000000
  -0.0000000004   -0.0000000004   -0.0000000000
  -0.0000000004   -0.0000000004   -0.0000000000
  -0.0000000004   -0.0000000004   -0.0000000000
  -0.0000000004   -0.0000000004   -0.0000000000
  -0.0000000004   -0.0000000004   -0.0000000000
   0.0000000996    0.0000000196   -0.0000002400
  -0.0000000004    0.0000000396    0.0000000400
  -0.0000000004   -0.0000000004   -0.0000000000
  -0.0000000004   -0.0000000004   -0.0000000000
  -0.0000000604   -0.0000000204   -0.0000001300
   0.0000000996    0.0000000196    0.0000002400
  -0.0000000604   -0.0000000204    0.0000001300
  -0.0000000004   -0.0000000004   -0.0000000000