phonopy:
  version: "2.47.1"
  calculator: lammps
  frequency_unit_conversion_factor: 15.633302
  symmetry_tolerance: 1.00000e-05
  configuration:
    cell_filename: "unitcell.txt"
    create_displacements: ".true."
    dim: "5 5 5"
    calculator: "lammps"

physical_unit:
  atomic_mass: "AMU"
  length: "angstrom"

space_group:
  type: "P4/mmm"
  number: 123
  Hall_symbol: "-P 4 2"

supercell_matrix:
- [   5,   0,   0 ]
- [   0,   5,   0 ]
- [   0,   0,   5 ]

primitive_cell:
  lattice:
  - [     5.376000000000001,     0.000000000000000,     0.000000000000000 ] # a
  - [     0.000000000000000,     5.376000000000001,     0.000000000000000 ] # b
  - [     0.000000000000000,     0.000000000000000,     5.376000000000001 ] # c
  points:
  - symbol: Ar # 1
    coordinates: [  0.000000000000000,  0.000000000000000,  0.000000000000000 ]
    mass: 39.948000
  - symbol: Xe # 2
    coordinates: [  0.000000000000000,  0.500000000000000,  0.500000000000000 ]
    mass: 131.293000
  - symbol: Ar # 3
    coordinates: [  0.500000000000000,  0.000000000000000,  0.500000000000000 ]
    mass: 39.948000
  - symbol: Xe # 4
    coordinates: [  0.500000000000000,  0.500000000000000,  0.000000000000000 ]
    mass: 131.293000
  reciprocal_lattice: # without 2pi
  - [     0.186011904761905,     0.000000000000000,     0.000000000000000 ] # a*
  - [     0.000000000000000,     0.186011904761905,     0.000000000000000 ] # b*
  - [     0.000000000000000,     0.000000000000000,     0.186011904761905 ] # c*

unit_cell:
  lattice:
  - [     5.376000000000000,     0.000000000000000,     0.000000000000000 ] # a
  - [     0.000000000000000,     5.376000000000000,     0.000000000000000 ] # b
  - [     0.000000000000000,     0.000000000000000,     5.376000000000000 ] # c
  points:
  - symbol: Ar # 1
    coordinates: [  0.000000000000000,  0.000000000000000,  0.000000000000000 ]
    mass: 39.948000
    reduced_to: 1
  - symbol: Xe # 2
    coordinates: [  0.000000000000000,  0.500000000000000,  0.500000000000000 ]
    mass: 131.293000
    reduced_to: 2
  - symbol: Ar # 3
    coordinates: [  0.500000000000000,  0.000000000000000,  0.500000000000000 ]
    mass: 39.948000
    reduced_to: 3
  - symbol: Xe # 4
    coordinates: [  0.500000000000000,  0.500000000000000,  0.000000000000000 ]
    mass: 131.293000
    reduced_to: 4

supercell:
  lattice:
  - [    26.880000000000003,     0.000000000000000,     0.000000000000000 ] # a
  - [     0.000000000000000,    26.880000000000003,     0.000000000000000 ] # b
  - [     0.000000000000000,     0.000000000000000,    26.880000000000003 ] # c
  points:
  - symbol: Ar # 1
    coordinates: [  0.000000000000000,  0.000000000000000,  0.000000000000000 ]
    mass: 39.948000
    reduced_to: 1
  - symbol: Ar # 2
    coordinates: [  0.200000000000000,  0.000000000000000,  0.000000000000000 ]
    mass: 39.948000
    reduced_to: 1
  - symbol: Ar # 3
    coordinates: [  0.400000000000000,  0.000000000000000,  0.000000000000000 ]
    mass: 39.948000
    reduced_to: 1
  - symbol: Ar # 4
    coordinates: [  0.600000000000000,  0.000000000000000,  0.000000000000000 ]
    mass: 39.948000
    reduced_to: 1
  - symbol: Ar # 5
    coordinates: [  0.800000000000000,  0.000000000000000,  0.000000000000000 ]
    mass: 39.948000
    reduced_to: 1
  - symbol: Ar # 6
    coordinates: [  0.000000000000000,  0.200000000000000,  0.000000000000000 ]
    mass: 39.948000
    reduced_to: 1
  - symbol: Ar # 7
    coordinates: [  0.200000000000000,  0.200000000000000,  0.000000000000000 ]
    mass: 39.948000
    reduced_to: 1
  - symbol: Ar # 8
    coordinates: [  0.400000000000000,  0.200000000000000,  0.000000000000000 ]
    mass: 39.948000
    reduced_to: 1
  - symbol: Ar # 9
    coordinates: [  0.600000000000000,  0.200000000000000,  0.000000000000000 ]
    mass: 39.948000
    reduced_to: 1
  - symbol: Ar # 10
    coordinates: [  0.800000000000000,  0.200000000000000,  0.000000000000000 ]
    mass: 39.948000
    reduced_to: 1
  - symbol: Ar # 11
    coordinates: [  0.000000000000000,  0.400000000000000,  0.000000000000000 ]
    mass: 39.948000
    reduced_to: 1
  - symbol: Ar # 12
    coordinates: [  0.200000000000000,  0.400000000000000,  0.000000000000000 ]
    mass: 39.948000
    reduced_to: 1
  - symbol: Ar # 13
    coordinates: [  0.400000000000000,  0.400000000000000,  0.000000000000000 ]
    mass: 39.948000
    reduced_to: 1
  - symbol: Ar # 14
    coordinates: [  0.600000000000000,  0.400000000000000,  0.000000000000000 ]
    mass: 39.948000
    reduced_to: 1
  - symbol: Ar # 15
    coordinates: [  0.800000000000000,  0.400000000000000,  0.000000000000000 ]
    mass: 39.948000
    reduced_to: 1
  - symbol: Ar # 16
    coordinates: [  0.000000000000000,  0.600000000000000,  0.000000000000000 ]
    mass: 39.948000
    reduced_to: 1
  - symbol: Ar # 17
    coordinates: [  0.200000000000000,  0.600000000000000,  0.000000000000000 ]
    mass: 39.948000
    reduced_to: 1
  - symbol: Ar # 18
    coordinates: [  0.400000000000000,  0.600000000000000,  0.000000000000000 ]
    mass: 39.948000
    reduced_to: 1
  - symbol: Ar # 19
    coordinates: [  0.600000000000000,  0.600000000000000,  0.000000000000000 ]
    mass: 39.948000
    reduced_to: 1
  - symbol: Ar # 20
    coordinates: [  0.800000000000000,  0.600000000000000,  0.000000000000000 ]
    mass: 39.948000
    reduced_to: 1
  - symbol: Ar # 21
    coordinates: [  0.000000000000000,  0.800000000000000,  0.000000000000000 ]
    mass: 39.948000
    reduced_to: 1
  - symbol: Ar # 22
    coordinates: [  0.200000000000000,  0.800000000000000,  0.000000000000000 ]
    mass: 39.948000
    reduced_to: 1
  - symbol: Ar # 23
    coordinates: [  0.400000000000000,  0.800000000000000,  0.000000000000000 ]
    mass: 39.948000
    reduced_to: 1
  - symbol: Ar # 24
    coordinates: [  0.600000000000000,  0.800000000000000,  0.000000000000000 ]
    mass: 39.948000
    reduced_to: 1
  - symbol: Ar # 25
    coordinates: [  0.800000000000000,  0.800000000000000,  0.000000000000000 ]
    mass: 39.948000
    reduced_to: 1
  - symbol: Ar # 26
    coordinates: [  0.000000000000000,  0.000000000000000,  0.200000000000000 ]
    mass: 39.948000
    reduced_to: 1
  - symbol: Ar # 27
    coordinates: [  0.200000000000000,  0.000000000000000,  0.200000000000000 ]
    mass: 39.948000
    reduced_to: 1
  - symbol: Ar # 28
    coordinates: [  0.400000000000000,  0.000000000000000,  0.200000000000000 ]
    mass: 39.948000
    reduced_to: 1
  - symbol: Ar # 29
    coordinates: [  0.600000000000000,  0.000000000000000,  0.200000000000000 ]
    mass: 39.948000
    reduced_to: 1
  - symbol: Ar # 30
    coordinates: [  0.800000000000000,  0.000000000000000,  0.200000000000000 ]
    mass: 39.948000
    reduced_to: 1
  - symbol: Ar # 31
    coordinates: [  0.000000000000000,  0.200000000000000,  0.200000000000000 ]
    mass: 39.948000
    reduced_to: 1
  - symbol: Ar # 32
    coordinates: [  0.200000000000000,  0.200000000000000,  0.200000000000000 ]
    mass: 39.948000
    reduced_to: 1
  - symbol: Ar # 33
    coordinates: [  0.400000000000000,  0.200000000000000,  0.200000000000000 ]
    mass: 39.948000
    reduced_to: 1
  - symbol: Ar # 34
    coordinates: [  0.600000000000000,  0.200000000000000,  0.200000000000000 ]
    mass: 39.948000
    reduced_to: 1
  - symbol: Ar # 35
    coordinates: [  0.800000000000000,  0.200000000000000,  0.200000000000000 ]
    mass: 39.948000
    reduced_to: 1
  - symbol: Ar # 36
    coordinates: [  0.000000000000000,  0.400000000000000,  0.200000000000000 ]
    mass: 39.948000
    reduced_to: 1
  - symbol: Ar # 37
    coordinates: [  0.200000000000000,  0.400000000000000,  0.200000000000000 ]
    mass: 39.948000
    reduced_to: 1
  - symbol: Ar # 38
    coordinates: [  0.400000000000000,  0.400000000000000,  0.200000000000000 ]
    mass: 39.948000
    reduced_to: 1
  - symbol: Ar # 39
    coordinates: [  0.600000000000000,  0.400000000000000,  0.200000000000000 ]
    mass: 39.948000
    reduced_to: 1
  - symbol: Ar # 40
    coordinates: [  0.800000000000000,  0.400000000000000,  0.200000000000000 ]
    mass: 39.948000
    reduced_to: 1
  - symbol: Ar # 41
    coordinates: [  0.000000000000000,  0.600000000000000,  0.200000000000000 ]
    mass: 39.948000
    reduced_to: 1
  - symbol: Ar # 42
    coordinates: [  0.200000000000000,  0.600000000000000,  0.200000000000000 ]
    mass: 39.948000
    reduced_to: 1
  - symbol: Ar # 43
    coordinates: [  0.400000000000000,  0.600000000000000,  0.200000000000000 ]
    mass: 39.948000
    reduced_to: 1
  - symbol: Ar # 44
    coordinates: [  0.600000000000000,  0.600000000000000,  0.200000000000000 ]
    mass: 39.948000
    reduced_to: 1
  - symbol: Ar # 45
    coordinates: [  0.800000000000000,  0.600000000000000,  0.200000000000000 ]
    mass: 39.948000
    reduced_to: 1
  - symbol: Ar # 46
    coordinates: [  0.000000000000000,  0.800000000000000,  0.200000000000000 ]
    mass: 39.948000
    reduced_to: 1
  - symbol: Ar # 47
    coordinates: [  0.200000000000000,  0.800000000000000,  0.200000000000000 ]
    mass: 39.948000
    reduced_to: 1
  - symbol: Ar # 48
    coordinates: [  0.400000000000000,  0.800000000000000,  0.200000000000000 ]
    mass: 39.948000
    reduced_to: 1
  - symbol: Ar # 49
    coordinates: [  0.600000000000000,  0.800000000000000,  0.200000000000000 ]
    mass: 39.948000
    reduced_to: 1
  - symbol: Ar # 50
    coordinates: [  0.800000000000000,  0.800000000000000,  0.200000000000000 ]
    mass: 39.948000
    reduced_to: 1
  - symbol: Ar # 51
    coordinates: [  0.000000000000000,  0.000000000000000,  0.400000000000000 ]
    mass: 39.948000
    reduced_to: 1
  - symbol: Ar # 52
    coordinates: [  0.200000000000000,  0.000000000000000,  0.400000000000000 ]
    mass: 39.948000
    reduced_to: 1
  - symbol: Ar # 53
    coordinates: [  0.400000000000000,  0.000000000000000,  0.400000000000000 ]
    mass: 39.948000
    reduced_to: 1
  - symbol: Ar # 54
    coordinates: [  0.600000000000000,  0.000000000000000,  0.400000000000000 ]
    mass: 39.948000
    reduced_to: 1
  - symbol: Ar # 55
    coordinates: [  0.800000000000000,  0.000000000000000,  0.400000000000000 ]
    mass: 39.948000
    reduced_to: 1
  - symbol: Ar # 56
    coordinates: [  0.000000000000000,  0.200000000000000,  0.400000000000000 ]
    mass: 39.948000
    reduced_to: 1
  - symbol: Ar # 57
    coordinates: [  0.200000000000000,  0.200000000000000,  0.400000000000000 ]
    mass: 39.948000
    reduced_to: 1
  - symbol: Ar # 58
    coordinates: [  0.400000000000000,  0.200000000000000,  0.400000000000000 ]
    mass: 39.948000
    reduced_to: 1
  - symbol: Ar # 59
    coordinates: [  0.600000000000000,  0.200000000000000,  0.400000000000000 ]
    mass: 39.948000
    reduced_to: 1
  - symbol: Ar # 60
    coordinates: [  0.800000000000000,  0.200000000000000,  0.400000000000000 ]
    mass: 39.948000
    reduced_to: 1
  - symbol: Ar # 61
    coordinates: [  0.000000000000000,  0.400000000000000,  0.400000000000000 ]
    mass: 39.948000
    reduced_to: 1
  - symbol: Ar # 62
    coordinates: [  0.200000000000000,  0.400000000000000,  0.400000000000000 ]
    mass: 39.948000
    reduced_to: 1
  - symbol: Ar # 63
    coordinates: [  0.400000000000000,  0.400000000000000,  0.400000000000000 ]
    mass: 39.948000
    reduced_to: 1
  - symbol: Ar # 64
    coordinates: [  0.600000000000000,  0.400000000000000,  0.400000000000000 ]
    mass: 39.948000
    reduced_to: 1
  - symbol: Ar # 65
    coordinates: [  0.800000000000000,  0.400000000000000,  0.400000000000000 ]
    mass: 39.948000
    reduced_to: 1
  - symbol: Ar # 66
    coordinates: [  0.000000000000000,  0.600000000000000,  0.400000000000000 ]
    mass: 39.948000
    reduced_to: 1
  - symbol: Ar # 67
    coordinates: [  0.200000000000000,  0.600000000000000,  0.400000000000000 ]
    mass: 39.948000
    reduced_to: 1
  - symbol: Ar # 68
    coordinates: [  0.400000000000000,  0.600000000000000,  0.400000000000000 ]
    mass: 39.948000
    reduced_to: 1
  - symbol: Ar # 69
    coordinates: [  0.600000000000000,  0.600000000000000,  0.400000000000000 ]
    mass: 39.948000
    reduced_to: 1
  - symbol: Ar # 70
    coordinates: [  0.800000000000000,  0.600000000000000,  0.400000000000000 ]
    mass: 39.948000
    reduced_to: 1
  - symbol: Ar # 71
    coordinates: [  0.000000000000000,  0.800000000000000,  0.400000000000000 ]
    mass: 39.948000
    reduced_to: 1
  - symbol: Ar # 72
    coordinates: [  0.200000000000000,  0.800000000000000,  0.400000000000000 ]
    mass: 39.948000
    reduced_to: 1
  - symbol: Ar # 73
    coordinates: [  0.400000000000000,  0.800000000000000,  0.400000000000000 ]
    mass: 39.948000
    reduced_to: 1
  - symbol: Ar # 74
    coordinates: [  0.600000000000000,  0.800000000000000,  0.400000000000000 ]
    mass: 39.948000
    reduced_to: 1
  - symbol: Ar # 75
    coordinates: [  0.800000000000000,  0.800000000000000,  0.400000000000000 ]
    mass: 39.948000
    reduced_to: 1
  - symbol: Ar # 76
    coordinates: [  0.000000000000000,  0.000000000000000,  0.600000000000000 ]
    mass: 39.948000
    reduced_to: 1
  - symbol: Ar # 77
    coordinates: [  0.200000000000000,  0.000000000000000,  0.600000000000000 ]
    mass: 39.948000
    reduced_to: 1
  - symbol: Ar # 78
    coordinates: [  0.400000000000000,  0.000000000000000,  0.600000000000000 ]
    mass: 39.948000
    reduced_to: 1
  - symbol: Ar # 79
    coordinates: [  0.600000000000000,  0.000000000000000,  0.600000000000000 ]
    mass: 39.948000
    reduced_to: 1
  - symbol: Ar # 80
    coordinates: [  0.800000000000000,  0.000000000000000,  0.600000000000000 ]
    mass: 39.948000
    reduced_to: 1
  - symbol: Ar # 81
    coordinates: [  0.000000000000000,  0.200000000000000,  0.600000000000000 ]
    mass: 39.948000
    reduced_to: 1
  - symbol: Ar # 82
    coordinates: [  0.200000000000000,  0.200000000000000,  0.600000000000000 ]
    mass: 39.948000
    reduced_to: 1
  - symbol: Ar # 83
    coordinates: [  0.400000000000000,  0.200000000000000,  0.600000000000000 ]
    mass: 39.948000
    reduced_to: 1
  - symbol: Ar # 84
    coordinates: [  0.600000000000000,  0.200000000000000,  0.600000000000000 ]
    mass: 39.948000
    reduced_to: 1
  - symbol: Ar # 85
    coordinates: [  0.800000000000000,  0.200000000000000,  0.600000000000000 ]
    mass: 39.948000
    reduced_to: 1
  - symbol: Ar # 86
    coordinates: [  0.000000000000000,  0.400000000000000,  0.600000000000000 ]
    mass: 39.948000
    reduced_to: 1
  - symbol: Ar # 87
    coordinates: [  0.200000000000000,  0.400000000000000,  0.600000000000000 ]
    mass: 39.948000
    reduced_to: 1
  - symbol: Ar # 88
    coordinates: [  0.400000000000000,  0.400000000000000,  0.600000000000000 ]
    mass: 39.948000
    reduced_to: 1
  - symbol: Ar # 89
    coordinates: [  0.600000000000000,  0.400000000000000,  0.600000000000000 ]
    mass: 39.948000
    reduced_to: 1
  - symbol: Ar # 90
    coordinates: [  0.800000000000000,  0.400000000000000,  0.600000000000000 ]
    mass: 39.948000
    reduced_to: 1
  - symbol: Ar # 91
    coordinates: [  0.000000000000000,  0.600000000000000,  0.600000000000000 ]
    mass: 39.948000
    reduced_to: 1
  - symbol: Ar # 92
    coordinates: [  0.200000000000000,  0.600000000000000,  0.600000000000000 ]
    mass: 39.948000
    reduced_to: 1
  - symbol: Ar # 93
    coordinates: [  0.400000000000000,  0.600000000000000,  0.600000000000000 ]
    mass: 39.948000
    reduced_to: 1
  - symbol: Ar # 94
    coordinates: [  0.600000000000000,  0.600000000000000,  0.600000000000000 ]
    mass: 39.948000
    reduced_to: 1
  - symbol: Ar # 95
    coordinates: [  0.800000000000000,  0.600000000000000,  0.600000000000000 ]
    mass: 39.948000
    reduced_to: 1
  - symbol: Ar # 96
    coordinates: [  0.000000000000000,  0.800000000000000,  0.600000000000000 ]
    mass: 39.948000
    reduced_to: 1
  - symbol: Ar # 97
    coordinates: [  0.200000000000000,  0.800000000000000,  0.600000000000000 ]
    mass: 39.948000
    reduced_to: 1
  - symbol: Ar # 98
    coordinates: [  0.400000000000000,  0.800000000000000,  0.600000000000000 ]
    mass: 39.948000
    reduced_to: 1
  - symbol: Ar # 99
    coordinates: [  0.600000000000000,  0.800000000000000,  0.600000000000000 ]
    mass: 39.948000
    reduced_to: 1
  - symbol: Ar # 100
    coordinates: [  0.800000000000000,  0.800000000000000,  0.600000000000000 ]
    mass: 39.948000
    reduced_to: 1
  - symbol: Ar # 101
    coordinates: [  0.000000000000000,  0.000000000000000,  0.800000000000000 ]
    mass: 39.948000
    reduced_to: 1
  - symbol: Ar # 102
    coordinates: [  0.200000000000000,  0.000000000000000,  0.800000000000000 ]
    mass: 39.948000
    reduced_to: 1
  - symbol: Ar # 103
    coordinates: [  0.400000000000000,  0.000000000000000,  0.800000000000000 ]
    mass: 39.948000
    reduced_to: 1
  - symbol: Ar # 104
    coordinates: [  0.600000000000000,  0.000000000000000,  0.800000000000000 ]
    mass: 39.948000
    reduced_to: 1
  - symbol: Ar # 105
    coordinates: [  0.800000000000000,  0.000000000000000,  0.800000000000000 ]
    mass: 39.948000
    reduced_to: 1
  - symbol: Ar # 106
    coordinates: [  0.000000000000000,  0.200000000000000,  0.800000000000000 ]
    mass: 39.948000
    reduced_to: 1
  - symbol: Ar # 107
    coordinates: [  0.200000000000000,  0.200000000000000,  0.800000000000000 ]
    mass: 39.948000
    reduced_to: 1
  - symbol: Ar # 108
    coordinates: [  0.400000000000000,  0.200000000000000,  0.800000000000000 ]
    mass: 39.948000
    reduced_to: 1
  - symbol: Ar # 109
    coordinates: [  0.600000000000000,  0.200000000000000,  0.800000000000000 ]
    mass: 39.948000
    reduced_to: 1
  - symbol: Ar # 110
    coordinates: [  0.800000000000000,  0.200000000000000,  0.800000000000000 ]
    mass: 39.948000
    reduced_to: 1
  - symbol: Ar # 111
    coordinates: [  0.000000000000000,  0.400000000000000,  0.800000000000000 ]
    mass: 39.948000
    reduced_to: 1
  - symbol: Ar # 112
    coordinates: [  0.200000000000000,  0.400000000000000,  0.800000000000000 ]
    mass: 39.948000
    reduced_to: 1
  - symbol: Ar # 113
    coordinates: [  0.400000000000000,  0.400000000000000,  0.800000000000000 ]
    mass: 39.948000
    reduced_to: 1
  - symbol: Ar # 114
    coordinates: [  0.600000000000000,  0.400000000000000,  0.800000000000000 ]
    mass: 39.948000
    reduced_to: 1
  - symbol: Ar # 115
    coordinates: [  0.800000000000000,  0.400000000000000,  0.800000000000000 ]
    mass: 39.948000
    reduced_to: 1
  - symbol: Ar # 116
    coordinates: [  0.000000000000000,  0.600000000000000,  0.800000000000000 ]
    mass: 39.948000
    reduced_to: 1
  - symbol: Ar # 117
    coordinates: [  0.200000000000000,  0.600000000000000,  0.800000000000000 ]
    mass: 39.948000
    reduced_to: 1
  - symbol: Ar # 118
    coordinates: [  0.400000000000000,  0.600000000000000,  0.800000000000000 ]
    mass: 39.948000
    reduced_to: 1
  - symbol: Ar # 119
    coordinates: [  0.600000000000000,  0.600000000000000,  0.800000000000000 ]
    mass: 39.948000
    reduced_to: 1
  - symbol: Ar # 120
    coordinates: [  0.800000000000000,  0.600000000000000,  0.800000000000000 ]
    mass: 39.948000
    reduced_to: 1
  - symbol: Ar # 121
    coordinates: [  0.000000000000000,  0.800000000000000,  0.800000000000000 ]
    mass: 39.948000
    reduced_to: 1
  - symbol: Ar # 122
    coordinates: [  0.200000000000000,  0.800000000000000,  0.800000000000000 ]
    mass: 39.948000
    reduced_to: 1
  - symbol: Ar # 123
    coordinates: [  0.400000000000000,  0.800000000000000,  0.800000000000000 ]
    mass: 39.948000
    reduced_to: 1
  - symbol: Ar # 124
    coordinates: [  0.600000000000000,  0.800000000000000,  0.800000000000000 ]
    mass: 39.948000
    reduced_to: 1
  - symbol: Ar # 125
    coordinates: [  0.800000000000000,  0.800000000000000,  0.800000000000000 ]
    mass: 39.948000
    reduced_to: 1
  - symbol: Xe # 126
    coordinates: [  0.000000000000000,  0.100000000000000,  0.100000000000000 ]
    mass: 131.293000
    reduced_to: 126
  - symbol: Xe # 127
    coordinates: [  0.200000000000000,  0.100000000000000,  0.100000000000000 ]
    mass: 131.293000
    reduced_to: 126
  - symbol: Xe # 128
    coordinates: [  0.400000000000000,  0.100000000000000,  0.100000000000000 ]
    mass: 131.293000
    reduced_to: 126
  - symbol: Xe # 129
    coordinates: [  0.600000000000000,  0.100000000000000,  0.100000000000000 ]
    mass: 131.293000
    reduced_to: 126
  - symbol: Xe # 130
    coordinates: [  0.800000000000000,  0.100000000000000,  0.100000000000000 ]
    mass: 131.293000
    reduced_to: 126
  - symbol: Xe # 131
    coordinates: [  0.000000000000000,  0.300000000000000,  0.100000000000000 ]
    mass: 131.293000
    reduced_to: 126
  - symbol: Xe # 132
    coordinates: [  0.200000000000000,  0.300000000000000,  0.100000000000000 ]
    mass: 131.293000
    reduced_to: 126
  - symbol: Xe # 133
    coordinates: [  0.400000000000000,  0.300000000000000,  0.100000000000000 ]
    mass: 131.293000
    reduced_to: 126
  - symbol: Xe # 134
    coordinates: [  0.600000000000000,  0.300000000000000,  0.100000000000000 ]
    mass: 131.293000
    reduced_to: 126
  - symbol: Xe # 135
    coordinates: [  0.800000000000000,  0.300000000000000,  0.100000000000000 ]
    mass: 131.293000
    reduced_to: 126
  - symbol: Xe # 136
    coordinates: [  0.000000000000000,  0.500000000000000,  0.100000000000000 ]
    mass: 131.293000
    reduced_to: 126
  - symbol: Xe # 137
    coordinates: [  0.200000000000000,  0.500000000000000,  0.100000000000000 ]
    mass: 131.293000
    reduced_to: 126
  - symbol: Xe # 138
    coordinates: [  0.400000000000000,  0.500000000000000,  0.100000000000000 ]
    mass: 131.293000
    reduced_to: 126
  - symbol: Xe # 139
    coordinates: [  0.600000000000000,  0.500000000000000,  0.100000000000000 ]
    mass: 131.293000
    reduced_to: 126
  - symbol: Xe # 140
    coordinates: [  0.800000000000000,  0.500000000000000,  0.100000000000000 ]
    mass: 131.293000
    reduced_to: 126
  - symbol: Xe # 141
    coordinates: [  0.000000000000000,  0.700000000000000,  0.100000000000000 ]
    mass: 131.293000
    reduced_to: 126
  - symbol: Xe # 142
    coordinates: [  0.200000000000000,  0.700000000000000,  0.100000000000000 ]
    mass: 131.293000
    reduced_to: 126
  - symbol: Xe # 143
    coordinates: [  0.400000000000000,  0.700000000000000,  0.100000000000000 ]
    mass: 131.293000
    reduced_to: 126
  - symbol: Xe # 144
    coordinates: [  0.600000000000000,  0.700000000000000,  0.100000000000000 ]
    mass: 131.293000
    reduced_to: 126
  - symbol: Xe # 145
    coordinates: [  0.800000000000000,  0.700000000000000,  0.100000000000000 ]
    mass: 131.293000
    reduced_to: 126
  - symbol: Xe # 146
    coordinates: [  0.000000000000000,  0.900000000000000,  0.100000000000000 ]
    mass: 131.293000
    reduced_to: 126
  - symbol: Xe # 147
    coordinates: [  0.200000000000000,  0.900000000000000,  0.100000000000000 ]
    mass: 131.293000
    reduced_to: 126
  - symbol: Xe # 148
    coordinates: [  0.400000000000000,  0.900000000000000,  0.100000000000000 ]
    mass: 131.293000
    reduced_to: 126
  - symbol: Xe # 149
    coordinates: [  0.600000000000000,  0.900000000000000,  0.100000000000000 ]
    mass: 131.293000
    reduced_to: 126
  - symbol: Xe # 150
    coordinates: [  0.800000000000000,  0.900000000000000,  0.100000000000000 ]
    mass: 131.293000
    reduced_to: 126
  - symbol: Xe # 151
    coordinates: [  0.000000000000000,  0.100000000000000,  0.300000000000000 ]
    mass: 131.293000
    reduced_to: 126
  - symbol: Xe # 152
    coordinates: [  0.200000000000000,  0.100000000000000,  0.300000000000000 ]
    mass: 131.293000
    reduced_to: 126
  - symbol: Xe # 153
    coordinates: [  0.400000000000000,  0.100000000000000,  0.300000000000000 ]
    mass: 131.293000
    reduced_to: 126
  - symbol: Xe # 154
    coordinates: [  0.600000000000000,  0.100000000000000,  0.300000000000000 ]
    mass: 131.293000
    reduced_to: 126
  - symbol: Xe # 155
    coordinates: [  0.800000000000000,  0.100000000000000,  0.300000000000000 ]
    mass: 131.293000
    reduced_to: 126
  - symbol: Xe # 156
    coordinates: [  0.000000000000000,  0.300000000000000,  0.300000000000000 ]
    mass: 131.293000
    reduced_to: 126
  - symbol: Xe # 157
    coordinates: [  0.200000000000000,  0.300000000000000,  0.300000000000000 ]
    mass: 131.293000
    reduced_to: 126
  - symbol: Xe # 158
    coordinates: [  0.400000000000000,  0.300000000000000,  0.300000000000000 ]
    mass: 131.293000
    reduced_to: 126
  - symbol: Xe # 159
    coordinates: [  0.600000000000000,  0.300000000000000,  0.300000000000000 ]
    mass: 131.293000
    reduced_to: 126
  - symbol: Xe # 160
    coordinates: [  0.800000000000000,  0.300000000000000,  0.300000000000000 ]
    mass: 131.293000
    reduced_to: 126
  - symbol: Xe # 161
    coordinates: [  0.000000000000000,  0.500000000000000,  0.300000000000000 ]
    mass: 131.293000
    reduced_to: 126
  - symbol: Xe # 162
    coordinates: [  0.200000000000000,  0.500000000000000,  0.300000000000000 ]
    mass: 131.293000
    reduced_to: 126
  - symbol: Xe # 163
    coordinates: [  0.400000000000000,  0.500000000000000,  0.300000000000000 ]
    mass: 131.293000
    reduced_to: 126
  - symbol: Xe # 164
    coordinates: [  0.600000000000000,  0.500000000000000,  0.300000000000000 ]
    mass: 131.293000
    reduced_to: 126
  - symbol: Xe # 165
    coordinates: [  0.800000000000000,  0.500000000000000,  0.300000000000000 ]
    mass: 131.293000
    reduced_to: 126
  - symbol: Xe # 166
    coordinates: [  0.000000000000000,  0.700000000000000,  0.300000000000000 ]
    mass: 131.293000
    reduced_to: 126
  - symbol: Xe # 167
    coordinates: [  0.200000000000000,  0.700000000000000,  0.300000000000000 ]
    mass: 131.293000
    reduced_to: 126
  - symbol: Xe # 168
    coordinates: [  0.400000000000000,  0.700000000000000,  0.300000000000000 ]
    mass: 131.293000
    reduced_to: 126
  - symbol: Xe # 169
    coordinates: [  0.600000000000000,  0.700000000000000,  0.300000000000000 ]
    mass: 131.293000
    reduced_to: 126
  - symbol: Xe # 170
    coordinates: [  0.800000000000000,  0.700000000000000,  0.300000000000000 ]
    mass: 131.293000
    reduced_to: 126
  - symbol: Xe # 171
    coordinates: [  0.000000000000000,  0.900000000000000,  0.300000000000000 ]
    mass: 131.293000
    reduced_to: 126
  - symbol: Xe # 172
    coordinates: [  0.200000000000000,  0.900000000000000,  0.300000000000000 ]
    mass: 131.293000
    reduced_to: 126
  - symbol: Xe # 173
    coordinates: [  0.400000000000000,  0.900000000000000,  0.300000000000000 ]
    mass: 131.293000
    reduced_to: 126
  - symbol: Xe # 174
    coordinates: [  0.600000000000000,  0.900000000000000,  0.300000000000000 ]
    mass: 131.293000
    reduced_to: 126
  - symbol: Xe # 175
    coordinates: [  0.800000000000000,  0.900000000000000,  0.300000000000000 ]
    mass: 131.293000
    reduced_to: 126
  - symbol: Xe # 176
    coordinates: [  0.000000000000000,  0.100000000000000,  0.500000000000000 ]
    mass: 131.293000
    reduced_to: 126
  - symbol: Xe # 177
    coordinates: [  0.200000000000000,  0.100000000000000,  0.500000000000000 ]
    mass: 131.293000
    reduced_to: 126
  - symbol: Xe # 178
    coordinates: [  0.400000000000000,  0.100000000000000,  0.500000000000000 ]
    mass: 131.293000
    reduced_to: 126
  - symbol: Xe # 179
    coordinates: [  0.600000000000000,  0.100000000000000,  0.500000000000000 ]
    mass: 131.293000
    reduced_to: 126
  - symbol: Xe # 180
    coordinates: [  0.800000000000000,  0.100000000000000,  0.500000000000000 ]
    mass: 131.293000
    reduced_to: 126
  - symbol: Xe # 181
    coordinates: [  0.000000000000000,  0.300000000000000,  0.500000000000000 ]
    mass: 131.293000
    reduced_to: 126
  - symbol: Xe # 182
    coordinates: [  0.200000000000000,  0.300000000000000,  0.500000000000000 ]
    mass: 131.293000
    reduced_to: 126
  - symbol: Xe # 183
    coordinates: [  0.400000000000000,  0.300000000000000,  0.500000000000000 ]
    mass: 131.293000
    reduced_to: 126
  - symbol: Xe # 184
    coordinates: [  0.600000000000000,  0.300000000000000,  0.500000000000000 ]
    mass: 131.293000
    reduced_to: 126
  - symbol: Xe # 185
    coordinates: [  0.800000000000000,  0.300000000000000,  0.500000000000000 ]
    mass: 131.293000
    reduced_to: 126
  - symbol: Xe # 186
    coordinates: [  0.000000000000000,  0.500000000000000,  0.500000000000000 ]
    mass: 131.293000
    reduced_to: 126
  - symbol: Xe # 187
    coordinates: [  0.200000000000000,  0.500000000000000,  0.500000000000000 ]
    mass: 131.293000
    reduced_to: 126
  - symbol: Xe # 188
    coordinates: [  0.400000000000000,  0.500000000000000,  0.500000000000000 ]
    mass: 131.293000
    reduced_to: 126
  - symbol: Xe # 189
    coordinates: [  0.600000000000000,  0.500000000000000,  0.500000000000000 ]
    mass: 131.293000
    reduced_to: 126
  - symbol: Xe # 190
    coordinates: [  0.800000000000000,  0.500000000000000,  0.500000000000000 ]
    mass: 131.293000
    reduced_to: 126
  - symbol: Xe # 191