#

500 atoms
2 atom types

0.0 26.880000000000003 xlo xhi
0.0 26.880000000000003 ylo yhi
0.0 26.880000000000003 zlo zhi

1.6459252980540428e-15 1.6459252980540428e-15 2.984279490192421e-15 xy xz yz


Atom Type Labels

1 Ar
2 Xe


Atoms

1 Ar 0.0 0.0 0.0
2 Ar 5.376000000000001 0.0 0.0
3 Ar 10.752000000000002 0.0 0.0
4 Ar 16.128000000000004 0.0 0.0
5 Ar 21.504000000000005 0.0 0.0
6 Ar 3.291850596108086e-16 5.376000000000001 0.0
7 Ar 5.376000000000001 5.376000000000001 0.0
8 Ar 10.752000000000002 5.376000000000001 0.0
9 Ar 16.128000000000004 5.376000000000001 0.0
10 Ar 21.504000000000005 5.376000000000001 0.0
11 Ar 6.583701192216172e-16 10.752000000000002 0.0
12 Ar 5.376000000000002 10.752000000000002 0.0
13 Ar 10.752000000000002 10.752000000000002 0.0
14 Ar 16.128000000000004 10.752000000000002 0.0
15 Ar 21.504000000000005 10.752000000000002 0.0
16 Ar 9.875551788324258e-16 16.128000000000004 0.0
17 Ar 5.376000000000002 16.128000000000004 0.0
18 Ar 10.752000000000004 16.128000000000004 0.0
19 Ar 16.128000000000004 16.128000000000004 0.0
20 Ar 21.504000000000005 16.128000000000004 0.0
21 Ar 1.3167402384432344e-15 21.504000000000005 0.0
22 Ar 5.376000000000002 21.504000000000005 0.0
23 Ar 10.752000000000004 21.504000000000005 0.0
24 Ar 16.128000000000004 21.504000000000005 0.0
25 Ar 21.504000000000005 21.504000000000005 0.0
26 Ar 3.291850596108086e-16 5.968558980384843e-16 5.376000000000001
27 Ar 5.376000000000001 5.968558980384843e-16 5.376000000000001
28 Ar 10.752000000000002 5.968558980384843e-16 5.376000000000001
29 Ar 16.128000000000004 5.968558980384843e-16 5.376000000000001
30 Ar 21.504000000000005 5.968558980384843e-16 5.376000000000001
31 Ar 6.583701192216172e-16 5.376000000000002 5.376000000000001
32 Ar 5.376000000000001 5.376000000000002 5.376000000000001
33 Ar 10.752000000000002 5.376000000000002 5.376000000000001
34 Ar 16.128000000000004 5.376000000000002 5.376000000000001
35 Ar 21.504000000000005 5.376000000000002 5.376000000000001
36 Ar 9.875551788324258e-16 10.752000000000002 5.376000000000001
37 Ar 5.376000000000002 10.752000000000002 5.376000000000001
38 Ar 10.752000000000002 10.752000000000002 5.376000000000001
39 Ar 16.128000000000004 10.752000000000002 5.376000000000001
40 Ar 21.504000000000005 10.752000000000002 5.376000000000001
41 Ar 1.3167402384432344e-15 16.128000000000004 5.376000000000001
42 Ar 5.376000000000002 16.128000000000004 5.376000000000001
43 Ar 10.752000000000004 16.128000000000004 5.376000000000001
44 Ar 16.128000000000004 16.128000000000004 5.376000000000001
45 Ar 21.504000000000005 16.128000000000004 5.376000000000001
46 Ar 1.645925298054043e-15 21.504000000000005 5.376000000000001
47 Ar 5.376000000000002 21.504000000000005 5.376000000000001
48 Ar 10.752000000000004 21.504000000000005 5.376000000000001
49 Ar 16.128000000000004 21.504000000000005 5.376000000000001
50 Ar 21.504000000000005 21.504000000000005 5.376000000000001
51 Ar 6.583701192216172e-16 1.1937117960769686e-15 10.752000000000002
52 Ar 5.376000000000002 1.1937117960769686e-15 10.752000000000002
53 Ar 10.752000000000002 1.1937117960769686e-15 10.752000000000002
54 Ar 16.128000000000004 1.1937117960769686e-15 10.752000000000002
55 Ar 21.504000000000005 1.1937117960769686e-15 10.752000000000002
56 Ar 9.875551788324258e-16 5.376000000000002 10.752000000000002
57 Ar 5.376000000000002 5.376000000000002 10.752000000000002
58 Ar 10.752000000000002 5.376000000000002 10.752000000000002
59 Ar 16.128000000000004 5.376000000000002 10.752000000000002
60 Ar 21.504000000000005 5.376000000000002 10.752000000000002
61 Ar 1.3167402384432344e-15 10.752000000000004 10.752000000000002
62 Ar 5.376000000000003 10.752000000000004 10.752000000000002
63 Ar 10.752000000000002 10.752000000000004 10.752000000000002
64 Ar 16.128000000000004 10.752000000000004 10.752000000000002
65 Ar 21.504000000000005 10.752000000000004 10.752000000000002
66 Ar 1.645925298054043e-15 16.128000000000004 10.752000000000002
67 Ar 5.376000000000003 16.128000000000004 10.752000000000002
68 Ar 10.752000000000004 16.128000000000004 10.752000000000002
69 Ar 16.128000000000004 16.128000000000004 10.752000000000002
70 Ar 21.504000000000005 16.128000000000004 10.752000000000002
71 Ar 1.9751103576648516e-15 21.504000000000005 10.752000000000002
72 Ar 5.376000000000003 21.504000000000005 10.752000000000002
73 Ar 10.752000000000004 21.504000000000005 10.752000000000002
74 Ar 16.128000000000004 21.504000000000005 10.752000000000002
75 Ar 21.504000000000005 21.504000000000005 10.752000000000002
76 Ar 9.875551788324258e-16 1.790567694115453e-15 16.128000000000004
77 Ar 5.376000000000002 1.790567694115453e-15 16.128000000000004
78 Ar 10.752000000000004 1.790567694115453e-15 16.128000000000004
79 Ar 16.128000000000004 1.790567694115453e-15 16.128000000000004
80 Ar 21.504000000000005 1.790567694115453e-15 16.128000000000004
81 Ar 1.3167402384432344e-15 5.376000000000003 16.128000000000004
82 Ar 5.376000000000002 5.376000000000003 16.128000000000004
83 Ar 10.752000000000004 5.376000000000003 16.128000000000004
84 Ar 16.128000000000004 5.376000000000003 16.128000000000004
85 Ar 21.504000000000005 5.376000000000003 16.128000000000004
86 Ar 1.645925298054043e-15 10.752000000000004 16.128000000000004
87 Ar 5.376000000000003 10.752000000000004 16.128000000000004
88 Ar 10.752000000000004 10.752000000000004 16.128000000000004
89 Ar 16.128000000000004 10.752000000000004 16.128000000000004
90 Ar 21.504000000000005 10.752000000000004 16.128000000000004
91 Ar 1.9751103576648516e-15 16.128000000000007 16.128000000000004
92 Ar 5.376000000000003 16.128000000000007 16.128000000000004
93 Ar 10.752000000000006 16.128000000000007 16.128000000000004
94 Ar 16.128000000000004 16.128000000000007 16.128000000000004
95 Ar 21.504000000000005 16.128000000000007 16.128000000000004
96 Ar 2.3042954172756602e-15 21.50400000000001 16.128000000000004
97 Ar 5.376000000000003 21.50400000000001 16.128000000000004
98 Ar 10.752000000000006 21.50400000000001 16.128000000000004
99 Ar 16.128000000000004 21.50400000000001 16.128000000000004
100 Ar 21.504000000000005 21.50400000000001 16.128000000000004
101 Ar 1.3167402384432344e-15 2.387423592153937e-15 21.504000000000005
102 Ar 5.376000000000002 2.387423592153937e-15 21.504000000000005
103 Ar 10.752000000000004 2.387423592153937e-15 21.504000000000005
104 Ar 16.128000000000004 2.387423592153937e-15 21.504000000000005
105 Ar 21.504000000000005 2.387423592153937e-15 21.504000000000005
106 Ar 1.645925298054043e-15 5.376000000000004 21.504000000000005
107 Ar 5.376000000000002 5.376000000000004 21.504000000000005
108 Ar 10.752000000000004 5.376000000000004 21.504000000000005
109 Ar 16.128000000000004 5.376000000000004 21.504000000000005
110 Ar 21.504000000000005 5.376000000000004 21.504000000000005
111 Ar 1.9751103576648516e-15 10.752000000000004 21.504000000000005
112 Ar 5.376000000000003 10.752000000000004 21.504000000000005
113 Ar 10.752000000000004 10.752000000000004 21.504000000000005
114 Ar 16.128000000000004 10.752000000000004 21.504000000000005
115 Ar 21.504000000000005 10.752000000000004 21.504000000000005
116 Ar 2.3042954172756602e-15 16.128000000000007 21.504000000000005
117 Ar 5.376000000000003 16.128000000000007 21.504000000000005
118 Ar 10.752000000000006 16.128000000000007 21.504000000000005
119 Ar 16.128000000000004 16.128000000000007 21.504000000000005
120 Ar 21.504000000000005 16.128000000000007 21.504000000000005
121 Ar 2.633480476886469e-15 21.50400000000001 21.504000000000005
122 Ar 5.376000000000003 21.50400000000001 21.504000000000005
123 Ar 10.752000000000006 21.50400000000001 21.504000000000005
124 Ar 16.128000000000004 21.50400000000001 21.504000000000005
125 Ar 21.504000000000005 21.50400000000001 21.504000000000005
126 Xe 0.007071067811865805 2.6950710678118663 2.6880000000000006
127 Xe 5.376000000000001 2.688000000000001 2.6880000000000006
128 Xe 10.752000000000002 2.688000000000001 2.6880000000000006
129 Xe 16.128000000000004 2.688000000000001 2.6880000000000006
130 Xe 21.504000000000005 2.688000000000001 2.6880000000000006
131 Xe 6.583701192216172e-16 8.064000000000002 2.6880000000000006
132 Xe 5.376000000000002 8.064000000000002 2.6880000000000006
133 Xe 10.752000000000002 8.064000000000002 2.6880000000000006
134 Xe 16.128000000000004 8.064000000000002 2.6880000000000006
135 Xe 21.504000000000005 8.064000000000002 2.6880000000000006
136 Xe 9.875551788324256e-16 13.440000000000001 2.6880000000000006
137 Xe 5.376000000000002 13.440000000000001 2.6880000000000006
138 Xe 10.752000000000002 13.440000000000001 2.6880000000000006
139 Xe 16.128000000000004 13.440000000000001 2.6880000000000006
140 Xe 21.504000000000005 13.440000000000001 2.6880000000000006
141 Xe 1.3167402384432344e-15 18.816000000000003 2.6880000000000006
142 Xe 5.376000000000002 18.816000000000003 2.6880000000000006
143 Xe 10.752000000000004 18.816000000000003 2.6880000000000006
144 Xe 16.128000000000004 18.816000000000003 2.6880000000000006
145 Xe 21.504000000000005 18.816000000000003 2.6880000000000006
146 Xe 1.645925298054043e-15 24.192000000000007 2.6880000000000006
147 Xe 5.376000000000003 24.192000000000007 2.6880000000000006
148 Xe 10.752000000000004 24.192000000000007 2.6880000000000006
149 Xe 16.128000000000004 24.192000000000007 2.6880000000000006
150 Xe 21.504000000000005 24.192000000000007 2.6880000000000006
151 Xe 6.583701192216172e-16 2.6880000000000015 8.064000000000002
152 Xe 5.376000000000002 2.6880000000000015 8.064000000000002
153 Xe 10.752000000000002 2.6880000000000015 8.064000000000002
154 Xe 16.128000000000004 2.6880000000000015 8.064000000000002
155 Xe 21.504000000000005 2.6880000000000015 8.064000000000002
156 Xe 9.875551788324258e-16 8.064000000000004 8.064000000000002
157 Xe 5.376000000000003 8.064000000000004 8.064000000000002
158 Xe 10.752000000000002 8.064000000000004 8.064000000000002
159 Xe 16.128000000000004 8.064000000000004 8.064000000000002
160 Xe 21.504000000000005 8.064000000000004 8.064000000000002
161 Xe 1.3167402384432344e-15 13.440000000000003 8.064000000000002
162 Xe 5.376000000000003 13.440000000000003 8.064000000000002
163 Xe 10.752000000000002 13.440000000000003 8.064000000000002
164 Xe 16.128000000000004 13.440000000000003 8.064000000000002
165 Xe 21.504000000000005 13.440000000000003 8.064000000000002
166 Xe 1.645925298054043e-15 18.816000000000003 8.064000000000002
167 Xe 5.376000000000003 18.816000000000003 8.064000000000002
168 Xe 10.752000000000004 18.816000000000003 8.064000000000002
169 Xe 16.128000000000004 18.816000000000003 8.064000000000002
170 Xe 21.504000000000005 18.816000000000003 8.064000000000002
171 Xe 1.9751103576648516e-15 24.192000000000007 8.064000000000002
172 Xe 5.376000000000004 24.192000000000007 8.064000000000002
173 Xe 10.752000000000004 24.192000000000007 8.064000000000002
174 Xe 16.128000000000004 24.192000000000007 8.064000000000002
175 Xe 21.504000000000005 24.192000000000007 8.064000000000002
176 Xe 9.875551788324258e-16 2.688000000000002 13.440000000000001
177 Xe 5.376000000000002 2.688000000000002 13.440000000000001
178 Xe 10.752000000000002 2.688000000000002 13.440000000000001
179 Xe 16.128000000000004 2.688000000000002 13.440000000000001
180 Xe 21.504000000000005 2.688000000000002 13.440000000000001
181 Xe 1.3167402384432344e-15 8.064000000000004 13.440000000000001
182 Xe 5.376000000000003 8.064000000000004 13.440000000000001
183 Xe 10.752000000000002 8.064000000000004 13.440000000000001
184 Xe 16.128000000000004 8.064000000000004 13.440000000000001
185 Xe 21.504000000000005 8.064000000000004 13.440000000000001
186 Xe 1.6459252980540428e-15 13.440000000000003 13.440000000000001
187 Xe 5.376000000000003 13.440000000000003 13.440000000000001
188 Xe 10.752000000000002 13.440000000000003 13.440000000000001
189 Xe 16.128000000000004 13.440000000000003 13.440000000000001
190 Xe 21.504000000000005 13.440000000000003 13.440000000000001
191 Xe 1.9751103576648516e-15 18.816000000000003 13.440000000000001
192 Xe 5.376000000000003 18.816000000000003 13.440000000000001
193 Xe 10.752000000000004 18.816000000000003 13.440000000000001
194 Xe 16.128000000000004 18.816000000000003 13.440000000000001
195 Xe 21.504000000000005 18.816000000000003 13.440000000000001
196 Xe 2.3042954172756602e-15 24.192000000000007 13.440000000000001
197 Xe 5.376000000000004 24.192000000000007 13.440000000000001
198 Xe 10.752000000000004 24.192000000000007 13.440000000000001
199 Xe 16.128000000000004 24.192000000000007 13.440000000000001
200 Xe 21.504000000000005 24.192000000000007 13.440000000000001
201 Xe 1.3167402384432344e-15 2.688000000000003 18.816000000000003
202 Xe 5.376000000000002 2.688000000000003 18.816000000000003
203 Xe 10.752000000000004 2.688000000000003 18.816000000000003
204 Xe 16.128000000000004 2.688000000000003 18.816000000000003
205 Xe 21.504000000000005 2.688000000000003 18.816000000000003
206 Xe 1.645925298054043e-15 8.064000000000004 18.816000000000003
207 Xe 5.376000000000003 8.064000000000004 18.816000000000003
208 Xe 10.752000000000004 8.064000000000004 18.816000000000003
209 Xe 16.128000000000004 8.064000000000004 18.816000000000003
210 Xe 21.504000000000005 8.064000000000004 18.816000000000003
211 Xe 1.9751103576648516e-15 13.440000000000003 18.816000000000003
212 Xe 5.376000000000003 13.440000000000003 18.816000000000003
213 Xe 10.752000000000004 13.440000000000003 18.816000000000003
214 Xe 16.128000000000004 13.440000000000003 18.816000000000003
215 Xe 21.504000000000005 13.440000000000003 18.816000000000003
216 Xe 2.3042954172756602e-15 18.816000000000006 18.816000000000003
217 Xe 5.376000000000003 18.816000000000006 18.816000000000003
218 Xe 10.752000000000006 18.816000000000006 18.816000000000003
219 Xe 16.128000000000004 18.816000000000006 18.816000000000003
220 Xe 21.504000000000005 18.816000000000006 18.816000000000003
221 Xe 2.633480476886469e-15 24.19200000000001 18.816000000000003
222 Xe 5.376000000000004 24.19200000000001 18.816000000000003
223 Xe 10.752000000000006 24.19200000000001 18.816000000000003
224 Xe 16.128000000000004 24.19200000000001 18.816000000000003
225 Xe 21.504000000000005 24.19200000000001 18.816000000000003
226 Xe 1.645925298054043e-15 2.6880000000000033 24.192000000000007
227 Xe 5.376000000000003 2.6880000000000033 24.192000000000007
228 Xe 10.752000000000004 2.6880000000000033 24.192000000000007
229 Xe 16.128000000000004 2.6880000000000033 24.192000000000007
230 Xe 21.504000000000005 2.6880000000000033 24.192000000000007
231 Xe 1.9751103576648516e-15 8.064000000000005 24.192000000000007
232 Xe 5.376000000000004 8.064000000000005 24.192000000000007
233 Xe 10.752000000000004 8.064000000000005 24.192000000000007
234 Xe 16.128000000000004 8.064000000000005 24.192000000000007
235 Xe 21.504000000000005 8.064000000000005 24.192000000000007
236 Xe 2.3042954172756602e-15 13.440000000000005 24.192000000000007
237 Xe 5.376000000000004 13.440000000000005 24.192000000000007
238 Xe 10.752000000000004 13.440000000000005 24.192000000000007
239 Xe 16.128000000000004 13.440000000000005 24.192000000000007
240 Xe 21.504000000000005 13.440000000000005 24.192000000000007
241 Xe 2.633480476886469e-15 18.816000000000006 24.192000000000007
242 Xe 5.376000000000004 18.816000000000006 24.192000000000007
243 Xe 10.752000000000006 18.816000000000006 24.192000000000007
244 Xe 16.128000000000004 18.816000000000006 24.192000000000007
245 Xe 21.504000000000005 18.816000000000006 24.192000000000007
246 Xe 2.9626655364972774e-15 24.19200000000001 24.192000000000007
247 Xe 5.376000000000005 24.19200000000001 24.192000000000007
248 Xe 10.752000000000006 24.19200000000001 24.192000000000007
249 Xe 16.128000000000004 24.19200000000001 24.192000000000007
250 Xe 21.504000000000005 24.19200000000001 24.192000000000007
251 Ar 2.6880000000000006 2.9842794901924215e-16 2.6880000000000006
252 Ar 8.064000000000002 2.9842794901924215e-16 2.6880000000000006
253 Ar 13.440000000000001 2.9842794901924215e-16 2.6880000000000006
254 Ar 18.816000000000003 2.9842794901924215e-16 2.6880000000000006
255 Ar 24.192000000000007 2.9842794901924215e-16 2.6880000000000006
256 Ar 2.688000000000001 5.376000000000001 2.6880000000000006
257 Ar 8.064000000000002 5.376000000000001 2.6880000000000006
258 Ar 13.440000000000001 5.376000000000001 2.6880000000000006
259 Ar 18.816000000000003 5.376000000000001 2.6880000000000006
260 Ar 24.192000000000007 5.376000000000001 2.6880000000000006
261 Ar 2.688000000000001 10.752000000000002 2.6880000000000006
262 Ar 8.064000000000002 10.752000000000002 2.6880000000000006
263 Ar 13.440000000000001 10.752000000000002 2.6880000000000006
264 Ar 18.816000000000003 10.752000000000002 2.6880000000000006
265 Ar 24.192000000000007 10.752000000000002 2.6880000000000006
266 Ar 2.6880000000000015 16.128000000000004 2.6880000000000006
267 Ar 8.064000000000004 16.128000000000004 2.6880000000000006
268 Ar 13.440000000000003 16.128000000000004 2.6880000000000006
269 Ar 18.816000000000003 16.128000000000004 2.6880000000000006
270 Ar 24.192000000000007 16.128000000000004 2.6880000000000006
271 Ar 2.688000000000002 21.504000000000005 2.6880000000000006
272 Ar 8.064000000000004 21.504000000000005 2.6880000000000006
273 Ar 13.440000000000003 21.504000000000005 2.6880000000000006
274 Ar 18.816000000000003 21.504000000000005 2.6880000000000006
275 Ar 24.192000000000007 21.504000000000005 2.6880000000000006
276 Ar 2.688000000000001 8.952838470577264e-16 8.064000000000002
277 Ar 8.064000000000002 8.952838470577264e-16 8.064000000000002
278 Ar 13.440000000000001 8.952838470577264e-16 8.064000000000002
279 Ar 18.816000000000003 8.952838470577264e-16 8.064000000000002
280 Ar 24.192000000000007 8.952838470577264e-16 8.064000000000002
281 Ar 2.6880000000000015 5.376000000000002 8.064000000000002
282 Ar 8.064000000000002 5.376000000000002 8.064000000000002
283 Ar 13.440000000000001 5.376000000000002 8.064000000000002
284 Ar 18.816000000000003 5.376000000000002 8.064000000000002
285 Ar 24.192000000000007 5.376000000000002 8.064000000000002
286 Ar 2.6880000000000015 10.752000000000004 8.064000000000002
287 Ar 8.064000000000002 10.752000000000004 8.064000000000002
288 Ar 13.440000000000001 10.752000000000004 8.064000000000002
289 Ar 18.816000000000003 10.752000000000004 8.064000000000002
290 Ar 24.192000000000007 10.752000000000004 8.064000000000002
291 Ar 2.688000000000002 16.128000000000004 8.064000000000002
292 Ar 8.064000000000004 16.128000000000004 8.064000000000002
293 Ar 13.440000000000003 16.128000000000004 8.064000000000002
294 Ar 18.816000000000003 16.128000000000004 8.064000000000002
295 Ar 24.192000000000007 16.128000000000004 8.064000000000002
296 Ar 2.6880000000000024 21.504000000000005 8.064000000000002
297 Ar 8.064000000000004 21.504000000000005 8.064000000000002
298 Ar 13.440000000000003 21.504000000000005 8.064000000000002
299 Ar 18.816000000000003 21.504000000000005 8.064000000000002
300 Ar 24.192000000000007 21.504000000000005 8.064000000000002
301 Ar 2.6880000000000015 1.4921397450962105e-15 13.440000000000001
302 Ar 8.064000000000002 1.4921397450962105e-15 13.440000000000001
303 Ar 13.440000000000001 1.4921397450962105e-15 13.440000000000001
304 Ar 18.816000000000003 1.4921397450962105e-15 13.440000000000001
305 Ar 24.192000000000007 1.4921397450962105e-15 13.440000000000001
306 Ar 2.688000000000002 5.376000000000003 13.440000000000001
307 Ar 8.064000000000002 5.376000000000003 13.440000000000001
308 Ar 13.440000000000001 5.376000000000003 13.440000000000001
309 Ar 18.816000000000003 5.376000000000003 13.440000000000001
310 Ar 24.192000000000007 5.376000000000003 13.440000000000001
311 Ar 2.688000000000002 10.752000000000004 13.440000000000001
312 Ar 8.064000000000002 10.752000000000004 13.440000000000001
313 Ar 13.440000000000001 10.752000000000004 13.440000000000001
314 Ar 18.816000000000003 10.752000000000004 13.440000000000001
315 Ar 24.192000000000007 10.752000000000004 13.440000000000001
316 Ar 2.6880000000000024 16.128000000000004 13.440000000000001
317 Ar 8.064000000000004 16.128000000000004 13.440000000000001
318 Ar 13.440000000000003 16.128000000000004 13.440000000000001
319 Ar 18.816000000000003 16.128000000000004 13.440000000000001
320 Ar 24.192000000000007 16.128000000000004 13.440000000000001
321 Ar 2.688000000000003 21.504000000000005 13.440000000000001
322 Ar 8.064000000000004 21.504000000000005 13.440000000000001
323 Ar 13.440000000000003 21.504000000000005 13.440000000000001
324 Ar 18.816000000000003 21.504000000000005 13.440000000000001
325 Ar 24.192000000000007 21.504000000000005 13.440000000000001
326 Ar 2.688000000000002 2.088995643134695e-15 18.816000000000003
327 Ar 8.064000000000004 2.088995643134695e-15 18.816000000000003
328 Ar 13.440000000000003 2.088995643134695e-15 18.816000000000003
329 Ar 18.816000000000003 2.088995643134695e-15 18.816000000000003
330 Ar 24.192000000000007 2.088995643134695e-15 18.816000000000003
331 Ar 2.6880000000000024 5.376000000000003 18.816000000000003
332 Ar 8.064000000000004 5.376000000000003 18.816000000000003
333 Ar 13.440000000000003 5.376000000000003 18.816000000000003
334 Ar 18.816000000000003 5.376000000000003 18.816000000000003
335 Ar 24.192000000000007 5.376000000000003 18.816000000000003
336 Ar 2.6880000000000024 10.752000000000004 18.816000000000003
337 Ar 8.064000000000004 10.752000000000004 18.816000000000003
338 Ar 13.440000000000003 10.752000000000004 18.816000000000003
339 Ar 18.816000000000003 10.752000000000004 18.816000000000003
340 Ar 24.192000000000007 10.752000000000004 18.816000000000003
341 Ar 2.688000000000003 16.128000000000007 18.816000000000003
342 Ar 8.064000000000005 16.128000000000007 18.816000000000003
343 Ar 13.440000000000005 16.128000000000007 18.816000000000003
344 Ar 18.816000000000003 16.128000000000007 18.816000000000003
345 Ar 24.192000000000007 16.128000000000007 18.816000000000003
346 Ar 2.6880000000000033 21.50400000000001 18.816000000000003
347 Ar 8.064000000000005 21.50400000000001 18.816000000000003
348 Ar 13.440000000000005 21.50400000000001 18.816000000000003
349 Ar 18.816000000000003 21.50400000000001 18.816000000000003
350 Ar 24.192000000000007 21.50400000000001 18.816000000000003
351 Ar 2.688000000000002 2.6858515411731795e-15 24.192000000000007
352 Ar 8.064000000000004 2.6858515411731795e-15 24.192000000000007
353 Ar 13.440000000000003 2.6858515411731795e-15 24.192000000000007
354 Ar 18.816000000000003 2.6858515411731795e-15 24.192000000000007
355 Ar 24.192000000000007 2.6858515411731795e-15 24.192000000000007
356 Ar 2.6880000000000024 5.376000000000004 24.192000000000007
357 Ar 8.064000000000004 5.376000000000004 24.192000000000007
358 Ar 13.440000000000003 5.376000000000004 24.192000000000007
359 Ar 18.816000000000003 5.376000000000004 24.192000000000007
360 Ar 24.192000000000007 5.376000000000004 24.192000000000007
361 Ar 2.6880000000000024 10.752000000000006 24.192000000000007
362 Ar 8.064000000000004 10.752000000000006 24.192000000000007
363 Ar 13.440000000000003 10.752000000000006 24.192000000000007
364 Ar 18.816000000000003 10.752000000000006 24.192000000000007
365 Ar 24.192000000000007 10.752000000000006 24.192000000000007
366 Ar 2.688000000000003 16.128000000000007 24.192000000000007
367 Ar 8.064000000000005 16.128000000000007 24.192000000000007
368 Ar 13.440000000000005 16.128000000000007 24.192000000000007
369 Ar 18.816000000000003 16.128000000000007 24.192000000000007
370 Ar 24.192000000000007 16.128000000000007 24.192000000000007
371 Ar 2.6880000000000033 21.50400000000001 24.192000000000007
372 Ar 8.064000000000005 21.50400000000001 24.192000000000007
373 Ar 13.440000000000005 21.50400000000001 24.192000000000007
374 Ar 18.816000000000003 21.50400000000001 24.192000000000007
375 Ar 24.192000000000007 21.50400000000001 24.192000000000007
376 Xe 2.6880000000000006 2.6880000000000006 0.0
377 Xe 8.064000000000002 2.6880000000000006 0.0
378 Xe 13.440000000000001 2.6880000000000006 0.0
379 Xe 18.816000000000003 2.6880000000000006 0.0
380 Xe 24.192000000000007 2.6880000000000006 0.0
381 Xe 2.688000000000001 8.064000000000002 0.0
382 Xe 8.064000000000002 8.064000000000002 0.0
383 Xe 13.440000000000001 8.064000000000002 0.0
384 Xe 18.816000000000003 8.064000000000002 0.0
385 Xe 24.192000000000007 8.064000000000002 0.0
386 Xe 2.6880000000000015 13.440000000000001 0.0
387 Xe 8.064000000000002 13.440000000000001 0.0
388 Xe 13.440000000000001 13.440000000000001 0.0
389 Xe 18.816000000000003 13.440000000000001 0.0
390 Xe 24.192000000000007 13.440000000000001 0.0
391 Xe 2.688000000000002 18.816000000000003 0.0
392 Xe 8.064000000000004 18.816000000000003 0.0
393 Xe 13.440000000000003 18.816000000000003 0.0
394 Xe 18.816000000000003 18.816000000000003 0.0
395 Xe 24.192000000000007 18.816000000000003 0.0
396 Xe 2.688000000000002 24.192000000000007 0.0
397 Xe 8.064000000000004 24.192000000000007 0.0
398 Xe 13.440000000000003 24.192000000000007 0.0
399 Xe 18.816000000000003 24.192000000000007 0.0
400 Xe 24.192000000000007 24.192000000000007 0.0
401 Xe 2.688000000000001 2.688000000000001 5.376000000000001
402 Xe 8.064000000000002 2.688000000000001 5.376000000000001
403 Xe 13.440000000000001 2.688000000000001 5.376000000000001
404 Xe 18.816000000000003 2.688000000000001 5.376000000000001
405 Xe 24.192000000000007 2.688000000000001 5.376000000000001
406 Xe 2.6880000000000015 8.064000000000002 5.376000000000001
407 Xe 8.064000000000002 8.064000000000002 5.376000000000001
408 Xe 13.440000000000001 8.064000000000002 5.376000000000001
409 Xe 18.816000000000003 8.064000000000002 5.376000000000001
410 Xe 24.192000000000007 8.064000000000002 5.376000000000001
411 Xe 2.688000000000002 13.440000000000001 5.376000000000001
412 Xe 8.064000000000002 13.440000000000001 5.376000000000001
413 Xe 13.440000000000001 13.440000000000001 5.376000000000001
414 Xe 18.816000000000003 13.440000000000001 5.376000000000001
415 Xe 24.192000000000007 13.440000000000001 5.376000000000001
416 Xe 2.6880000000000024 18.816000000000003 5.376000000000001
417 Xe 8.064000000000004 18.816000000000003 5.376000000000001
418 Xe 13.440000000000003 18.816000000000003 5.376000000000001
419 Xe 18.816000000000003 18.816000000000003 5.376000000000001
420 Xe 24.192000000000007 18.816000000000003 5.376000000000001
421 Xe 2.6880000000000024 24.192000000000007 5.376000000000001
422 Xe 8.064000000000004 24.192000000000007 5.376000000000001
423 Xe 13.440000000000003 24.192000000000007 5.376000000000001
424 Xe 18.816000000000003 24.192000000000007 5.376000000000001
425 Xe 24.192000000000007 24.192000000000007 5.376000000000001
426 Xe 2.688000000000001 2.688000000000002 10.752000000000002
427 Xe 8.064000000000002 2.688000000000002 10.752000000000002
428 Xe 13.440000000000001 2.688000000000002 10.752000000000002
429 Xe 18.816000000000003 2.688000000000002 10.752000000000002
430 Xe 24.192000000000007 2.688000000000002 10.752000000000002
431 Xe 2.6880000000000015 8.064000000000004 10.752000000000002
432 Xe 8.064000000000002 8.064000000000004 10.752000000000002
433 Xe 13.440000000000001 8.064000000000004 10.752000000000002
434 Xe 18.816000000000003 8.064000000000004 10.752000000000002
435 Xe 24.192000000000007 8.064000000000004 10.752000000000002
436 Xe 2.688000000000002 13.440000000000003 10.752000000000002
437 Xe 8.064000000000002 13.440000000000003 10.752000000000002
438 Xe 13.440000000000001 13.440000000000003 10.752000000000002
439 Xe 18.816000000000003 13.440000000000003 10.752000000000002
440 Xe 24.192000000000007 13.440000000000003 10.752000000000002
441 Xe 2.6880000000000024 18.816000000000003 10.752000000000002
442 Xe 8.064000000000004 18.816000000000003 10.752000000000002
443 Xe 13.440000000000003 18.816000000000003 10.752000000000002
444 Xe 18.816000000000003 18.816000000000003 10.752000000000002
445 Xe 24.192000000000007 18.816000000000003 10.752000000000002
446 Xe 2.6880000000000024 24.192000000000007 10.752000000000002
447 Xe 8.064000000000004 24.192000000000007 10.752000000000002
448 Xe 13.440000000000003 24.192000000000007 10.752000000000002
449 Xe 18.816000000000003 24.192000000000007 10.752000000000002
450 Xe 24.192000000000007 24.192000000000007 10.752000000000002
451 Xe 2.6880000000000015 2.6880000000000024 16.128000000000004
452 Xe 8.064000000000004 2.6880000000000024 16.128000000000004
453 Xe 13.440000000000003 2.6880000000000024 16.128000000000004
454 Xe 18.816000000000003 2.6880000000000024 16.128000000000004
455 Xe 24.192000000000007 2.6880000000000024 16.128000000000004
456 Xe 2.688000000000002 8.064000000000004 16.128000000000004
457 Xe 8.064000000000004 8.064000000000004 16.128000000000004
458 Xe 13.440000000000003 8.064000000000004 16.128000000000004
459 Xe 18.816000000000003 8.064000000000004 16.128000000000004
460 Xe 24.192000000000007 8.064000000000004 16.128000000000004
461 Xe 2.6880000000000024 13.440000000000003 16.128000000000004
462 Xe 8.064000000000004 13.440000000000003 16.128000000000004
463 Xe 13.440000000000003 13.440000000000003 16.128000000000004
464 Xe 18.816000000000003 13.440000000000003 16.128000000000004
465 Xe 24.192000000000007 13.440000000000003 16.128000000000004
466 Xe 2.688000000000003 18.816000000000006 16.128000000000004
467 Xe 8.064000000000005 18.816000000000006 16.128000000000004
468 Xe 13.440000000000005 18.816000000000006 16.128000000000004
469 Xe 18.816000000000003 18.816000000000006 16.128000000000004
470 Xe 24.192000000000007 18.816000000000006 16.128000000000004
471 Xe 2.688000000000003 24.19200000000001 16.128000000000004
472 Xe 8.064000000000005 24.19200000000001 16.128000000000004