ITEM: TIMESTEP
0
ITEM: NUMBER OF ATOMS
500
ITEM: BOX BOUNDS xy xz yz pp pp pp
0.0000000000000000e+00 2.6880000000000003e+01 1.6459252980540428e-15
0.0000000000000000e+00 2.6880000000000006e+01 1.6459252980540428e-15
0.0000000000000000e+00 2.6880000000000003e+01 2.9842794901924211e-15
ITEM: ATOMS id type x y z fx fy fz
1 1      0.01000000      0.00000000      0.00000000     -0.00215776      0.00000000      0.00000000
2 1      5.37600000      0.00000000      0.00000000     -0.00002964      0.00000000      0.00000000
6 1      0.00000000      5.37600000      0.00000000      0.00000482      0.00000003      0.00000000
7 1      5.37600000      5.37600000      0.00000000     -0.00000101     -0.00000135      0.00000000
26 1      0.00000000      0.00000000      5.37600000      0.00000482      0.00000000      0.00000003
27 1      5.37600000      0.00000000      5.37600000     -0.00000101      0.00000000     -0.00000135
31 1      0.00000000      5.37600000      5.37600000      0.00000034      0.00000000      0.00000000
32 1      5.37600000      5.37600000      5.37600000     -0.00000011     -0.00000018     -0.00000018
126 1      0.00000000      2.68800000      2.68800000     -0.00000292     -0.00000053     -0.00000053
127 1      5.37600000      2.68800000      2.68800000     -0.00000441     -0.00000274     -0.00000274
131 1      0.00000000      8.06400000      2.68800000      0.00000014      0.00000000      0.00000000
132 1      5.37600000      8.06400000      2.68800000     -0.00000005     -0.00000013     -0.00000004
151 1      0.00000000      2.68800000      8.06400000      0.00000014      0.00000000      0.00000000
152 1      5.37600000      2.68800000      8.06400000     -0.00000005     -0.00000004     -0.00000013
156 1      0.00000000      8.06400000      8.06400000      0.00000001      0.00000000      0.00000000
157 1      5.37600000      8.06400000      8.06400000     -0.00000000     -0.00000001     -0.00000001
251 1      2.68800000      0.00000000      2.68800000      0.00028800      0.00000000      0.00029200
252 1      8.06400000      0.00000000      2.68800000     -0.00000087      0.00000000     -0.00000034
256 1      2.68800000      5.37600000      2.68800000     -0.00000031     -0.00000272     -0.00000136
257 1      8.06400000      5.37600000      2.68800000     -0.00000015     -0.00000013     -0.00000006
276 1      2.68800000      0.00000000      8.06400000      0.00000003      0.00000000     -0.00000034
277 1      8.06400000      0.00000000      8.06400000     -0.00000004      0.00000000     -0.00000005
281 1      2.68800000      5.37600000      8.06400000      0.00000002     -0.00000004     -0.00000006
282 1      8.06400000      5.37600000      8.06400000     -0.00000001     -0.00000001     -0.00000002
376 1      2.68800000      2.68800000      0.00000000      0.00028800      0.00029200      0.00000000
377 1      8.06400000      2.68800000      0.00000000     -0.00000087     -0.00000034      0.00000000
381 1      2.68800000      8.06400000      0.00000000      0.00000003     -0.00000034      0.00000000
382 1      8.06400000      8.06400000      0.00000000     -0.00000004     -0.00000005      0.00000000
401 1      2.68800000      2.68800000      5.37600000     -0.00000031     -0.00000136     -0.00000272
402 1      8.06400000      2.68800000      5.37600000     -0.00000015     -0.00000006     -0.00000013
406 1      2.68800000      8.06400000      5.37600000      0.00000002     -0.00000006     -0.00000004
407 1      8.06400000      8.06400000      5.37600000     -0.00000001     -0.00000002     -0.00000001
3 1     10.75200000      0.00000000      0.00000000     -0.00000015      0.00000000      0.00000000
4 1     16.12800000      0.00000000      0.00000000     -0.00000015      0.00000000      0.00000000
8 1     10.75200000      5.37600000      0.00000000     -0.00000005     -0.00000003      0.00000000
9 1     16.12800000      5.37600000      0.00000000     -0.00000005      0.00000003      0.00000000
28 1     10.75200000      0.00000000      5.37600000     -0.00000005      0.00000000     -0.00000003
29 1     16.12800000      0.00000000      5.37600000     -0.00000005      0.00000000      0.00000003
33 1     10.75200000      5.37600000      5.37600000     -0.00000000      0.00000000      0.00000000
34 1     16.12800000      5.37600000      5.37600000     -0.00000000      0.00000000      0.00000000
128 1     10.75200000      2.68800000      2.68800000     -0.00000008     -0.00000002     -0.00000002
129 1     16.12800000      2.68800000      2.68800000     -0.00000008      0.00000002      0.00000002
133 1     10.75200000      8.06400000      2.68800000     -0.00000000      0.00000000     -0.00000000
134 1     16.12800000      8.06400000      2.68800000     -0.00000000      0.00000000     -0.00000000
153 1     10.75200000      2.68800000      8.06400000     -0.00000000     -0.00000000     -0.00000000
154 1     16.12800000      2.68800000      8.06400000     -0.00000000     -0.00000000     -0.00000000
158 1     10.75200000      8.06400000      8.06400000     -0.00000000     -0.00000000      0.00000000
159 1     16.12800000      8.06400000      8.06400000     -0.00000000     -0.00000000      0.00000000
253 1     13.44000000      0.00000000      2.68800000      0.00000000      0.00000000     -0.00000000
258 1     13.44000000      5.37600000      2.68800000      0.00000000      0.00000000     -0.00000000
278 1     13.44000000      0.00000000      8.06400000      0.00000000      0.00000000      0.00000000
283 1     13.44000000      5.37600000      8.06400000      0.00000000      0.00000000      0.00000000
378 1     13.44000000      2.68800000      0.00000000      0.00000000     -0.00000000      0.00000000
383 1     13.44000000      8.06400000      0.00000000      0.00000000      0.00000000      0.00000000
403 1     13.44000000      2.68800000      5.37600000      0.00000000      0.00000000      0.00000000
408 1     13.44000000      8.06400000      5.37600000      0.00000000      0.00000000      0.00000000
5 1     21.50400000      0.00000000      0.00000000     -0.00002930      0.00000000      0.00000000
10 1     21.50400000      5.37600000      0.00000000     -0.00000100      0.00000134      0.00000000
30 1     21.50400000      0.00000000      5.37600000     -0.00000100      0.00000000      0.00000134
35 1     21.50400000      5.37600000      5.37600000     -0.00000011      0.00000018      0.00000018
130 1     21.50400000      2.68800000      2.68800000     -0.00000437      0.00000271      0.00000271
135 1     21.50400000      8.06400000      2.68800000     -0.00000005      0.00000013      0.00000004
155 1     21.50400000      2.68800000      8.06400000     -0.00000005      0.00000004      0.00000013
160 1     21.50400000      8.06400000      8.06400000     -0.00000000      0.00000001      0.00000001
254 1     18.81600000      0.00000000      2.68800000     -0.00000086      0.00000000      0.00000033
255 1     24.19200000      0.00000000      2.68800000      0.00027872      0.00000000     -0.00028059
259 1     18.81600000      5.37600000      2.68800000     -0.00000015      0.00000013      0.00000006
260 1     24.19200000      5.37600000      2.68800000     -0.00000031      0.00000272      0.00000136
279 1     18.81600000      0.00000000      8.06400000     -0.00000004      0.00000000      0.00000005
280 1     24.19200000      0.00000000      8.06400000      0.00000003      0.00000000      0.00000034
284 1     18.81600000      5.37600000      8.06400000     -0.00000001      0.00000001      0.00000002
285 1     24.19200000      5.37600000      8.06400000      0.00000002      0.00000004      0.00000006
379 1     18.81600000      2.68800000      0.00000000     -0.00000086      0.00000033      0.00000000
380 1     24.19200000      2.68800000      0.00000000      0.00027872     -0.00028059      0.00000000
384 1     18.81600000      8.06400000      0.00000000     -0.00000004      0.00000005      0.00000000
385 1     24.19200000      8.06400000      0.00000000      0.00000003      0.00000034      0.00000000
404 1     18.81600000      2.68800000      5.37600000     -0.00000015      0.00000006      0.00000013
405 1     24.19200000      2.68800000      5.37600000     -0.00000031      0.00000136      0.00000272
409 1     18.81600000      8.06400000      5.37600000     -0.00000001      0.00000002      0.00000001
410 1     24.19200000      8.06400000      5.37600000      0.00000002      0.00000006      0.00000004
11 1      0.00000000     10.75200000      0.00000000      0.00000002      0.00000000      0.00000000
12 1      5.37600000     10.75200000      0.00000000     -0.00000001     -0.00000003      0.00000000
16 1      0.00000000     16.12800000      0.00000000      0.00000002     -0.00000000      0.00000000
17 1      5.37600000     16.12800000      0.00000000     -0.00000001      0.00000003      0.00000000
36 1      0.00000000     10.75200000      5.37600000      0.00000001      0.00000000      0.00000000
37 1      5.37600000     10.75200000      5.37600000     -0.00000000      0.00000000      0.00000000
41 1      0.00000000     16.12800000      5.37600000      0.00000001     -0.00000000      0.00000000
42 1      5.37600000     16.12800000      5.37600000      0.00000000      0.00000000     -0.00000000
136 1      0.00000000     13.44000000      2.68800000      0.00000000      0.00000000      0.00000000
137 1      5.37600000     13.44000000      2.68800000     -0.00000000      0.00000000     -0.00000000
161 1      0.00000000     13.44000000      8.06400000      0.00000000     -0.00000000     -0.00000000
162 1      5.37600000     13.44000000      8.06400000     -0.00000000     -0.00000000      0.00000000
261 1      2.68800000     10.75200000      2.68800000      0.00000001     -0.00000002     -0.00000001
262 1      8.06400000     10.75200000      2.68800000      0.00000000     -0.00000000     -0.00000000
266 1      2.68800000     16.12800000      2.68800000      0.00000001      0.00000002     -0.00000001
267 1      8.06400000     16.12800000      2.68800000     -0.00000000     -0.00000000     -0.00000000
286 1      2.68800000     10.75200000      8.06400000      0.00000000      0.00000000      0.00000000
287 1      8.06400000     10.75200000      8.06400000      0.00000000      0.00000000      0.00000000
291 1      2.68800000     16.12800000      8.06400000      0.00000000      0.00000000     -0.00000000
292 1      8.06400000     16.12800000      8.06400000     -0.00000000      0.00000000     -0.00000000
386 1      2.68800000     13.44000000      0.00000000     -0.00000000      0.00000000      0.00000000
387 1      8.06400000     13.44000000      0.00000000      0.00000000      0.00000000      0.00000000
411 1      2.68800000     13.44000000      5.37600000     -0.00000000      0.00000000      0.00000000
412 1      8.06400000     13.44000000      5.37600000      0.00000000      0.00000000     -0.00000000
13 1     10.75200000     10.75200000      0.00000000     -0.00000000      0.00000000      0.00000000
14 1     16.12800000     10.75200000      0.00000000     -0.00000000      0.00000000      0.00000000
18 1     10.75200000     16.12800000      0.00000000      0.00000000     -0.00000000      0.00000000
19 1     16.12800000     16.12800000      0.00000000      0.00000000     -0.00000000      0.00000000
38 1     10.75200000     10.75200000      5.37600000     -0.00000000      0.00000000      0.00000000
39 1     16.12800000     10.75200000      5.37600000     -0.00000000      0.00000000      0.00000000
43 1     10.75200000     16.12800000      5.37600000      0.00000000     -0.00000000     -0.00000000
44 1     16.12800000     16.12800000      5.37600000      0.00000000     -0.00000000     -0.00000000
138 1     10.75200000     13.44000000      2.68800000     -0.00000000      0.00000000     -0.00000000
139 1     16.12800000     13.44000000      2.68800000     -0.00000000      0.00000000     -0.00000000
163 1     10.75200000     13.44000000      8.06400000     -0.00000000     -0.00000000     -0.00000000
164 1     16.12800000     13.44000000      8.06400000     -0.00000000     -0.00000000     -0.00000000
263 1     13.44000000     10.75200000      2.68800000      0.00000000     -0.00000000     -0.00000000
268 1     13.44000000     16.12800000      2.68800000     -0.00000000     -0.00000000     -0.00000000
288 1     13.44000000     10.75200000      8.06400000      0.00000000      0.00000000      0.00000000
293 1     13.44000000     16.12800000      8.06400000     -0.00000000      0.00000000     -0.00000000
388 1     13.44000000     13.44000000      0.00000000      0.00000000      0.00000000      0.00000000
413 1     13.44000000     13.44000000      5.37600000      0.00000000      0.00000000     -0.00000000
15 1     21.50400000     10.75200000      0.00000000     -0.00000001      0.00000003      0.00000000
20 1     21.50400000     16.12800000      0.00000000     -0.00000001     -0.00000003      0.00000000
40 1     21.50400000     10.75200000      5.37600000      0.00000000      0.00000000      0.00000000
45 1     21.50400000     16.12800000      5.37600000      0.00000000     -0.00000000     -0.00000000
140 1     21.50400000     13.44000000      2.68800000      0.00000000      0.00000000     -0.00000000
165 1     21.50400000     13.44000000      8.06400000      0.00000000     -0.00000000     -0.00000000
264 1     18.81600000     10.75200000      2.68800000      0.00000000     -0.00000000     -0.00000000
265 1     24.19200000     10.75200000      2.68800000      0.00000001      0.00000002      0.00000001
269 1     18.81600000     16.12800000      2.68800000      0.00000000     -0.00000000     -0.00000000
270 1     24.19200000     16.12800000      2.68800000      0.00000001     -0.00000002      0.00000001
289 1     18.81600000     10.75200000      8.06400000      0.00000000      0.00000000      0.00000000
290 1     24.19200000     10.75200000      8.06400000     -0.00000000      0.00000000      0.00000000
294 1     18.81600000     16.12800000      8.06400000      0.00000000      0.00000000     -0.00000000
295 1     24.19200000     16.12800000      8.06400000     -0.00000000      0.00000000     -0.00000000
389 1     18.81600000     13.44000000      0.00000000      0.00000000      0.00000000      0.00000000
390 1     24.19200000     13.44000000      0.00000000     -0.00000000      0.00000000      0.00000000
414 1     18.81600000     13.44000000      5.37600000      0.00000000      0.00000000     -0.00000000
415 1     24.19200000     13.44000000      5.37600000     -0.00000000      0.00000000     -0.00000000
21 1      0.00000000     21.50400000      0.00000000      0.00000482     -0.00000003      0.00000000
22 1      5.37600000     21.50400000      0.00000000     -0.00000101      0.00000135      0.00000000
46 1      0.00000000     21.50400000      5.37600000      0.00000034     -0.00000000      0.00000000
47 1      5.37600000     21.50400000      5.37600000     -0.00000011      0.00000018     -0.00000018
141 1      0.00000000     18.81600000      2.68800000      0.00000014     -0.00000000      0.00000000
142 1      5.37600000     18.81600000      2.68800000     -0.00000005      0.00000013     -0.00000004
146 1      0.00000000     24.19200000      2.68800000     -0.00000292      0.00000053     -0.00000053
147 1      5.37600000     24.19200000      2.68800000     -0.00000441      0.00000274     -0.00000274
166 1      0.00000000     18.81600000      8.06400000      0.00000001     -0.00000000      0.00000000
167 1      5.37600000     18.81600000      8.06400000     -0.00000000      0.00000001     -0.00000001
171 1      0.00000000     24.19200000      8.06400000      0.00000014     -0.00000000      0.00000000
172 1      5.37600000     24.19200000      8.06400000     -0.00000005      0.00000004     -0.00000013
271 1      2.68800000     21.50400000      2.68800000     -0.00000031      0.00000272     -0.00000136
272 1      8.06400000     21.50400000      2.68800000     -0.00000015      0.00000013     -0.00000006
296 1      2.68800000     21.50400000      8.06400000      0.00000002      0.00000004     -0.00000006
297 1      8.06400000     21.50400000      8.06400000     -0.00000001      0.00000001     -0.00000002
391 1      2.68800000     18.81600000      0.00000000      0.00000003      0.00000034      0.00000000
392 1      8.06400000     18.81600000      0.00000000     -0.00000004      0.00000005      0.00000000
396 1      2.68800000     24.19200000      0.00000000      0.00028800     -0.00029200      0.00000000
397 1      8.06400000     24.19200000      0.00000000     -0.00000087      0.00000034      0.00000000
416 1      2.68800000     18.81600000      5.37600000      0.00000002      0.00000006     -0.00000004
417 1      8.06400000     18.81600000      5.37600000     -0.00000001      0.00000002     -0.00000001
421 1      2.68800000     24.19200000      5.37600000     -0.00000031      0.00000136     -0.00000272
422 1      8.06400000     24.19200000      5.37600000     -0.00000015      0.00000006     -0.00000013
23 1     10.75200000     21.50400000      0.00000000     -0.00000005      0.00000003      0.00000000
24 1     16.12800000     21.50400000      0.00000000     -0.00000005     -0.00000003      0.00000000
48 1     10.75200000     21.50400000      5.37600000      0.00000000      0.00000000     -0.00000000
49 1     16.12800000     21.50400000      5.37600000      0.00000000      0.00000000     -0.00000000
143 1     10.75200000     18.81600000      2.68800000      0.00000000      0.00000000     -0.00000000
144 1     16.12800000     18.81600000      2.68800000      0.00000000      0.00000000     -0.00000000
148 1     10.75200000     24.19200000      2.68800000     -0.00000008      0.00000002     -0.00000002
149 1     16.12800000     24.19200000      2.68800000     -0.00000008     -0.00000002      0.00000002
168 1     10.75200000     18.81600000      8.06400000      0.00000000      0.00000000      0.00000000
169 1     16.12800000     18.81600000      8.06400000      0.00000000      0.00000000      0.00000000
173 1     10.75200000     24.19200000      8.06400000      0.00000000     -0.00000000     -0.00000000
174 1     16.12800000     24.19200000      8.06400000      0.00000000     -0.00000000     -0.00000000
273 1     13.44000000     21.50400000      2.68800000     -0.00000000      0.00000000     -0.00000000
298 1     13.44000000     21.50400000      8.06400000     -0.00000000      0.00000000      0.00000000
393 1     13.44000000     18.81600000      0.00000000     -0.00000000      0.00000000      0.00000000
398 1     13.44000000     24.19200000      0.00000000     -0.00000000     -0.00000000      0.00000000
418 1     13.44000000     18.81600000      5.37600000     -0.00000000      0.00000000     -0.00000000
423 1     13.44000000     24.19200000      5.37600000     -0.00000000     -0.00000000      0.00000000
25 1     21.50400000     21.50400000      0.00000000     -0.00000100     -0.00000134      0.00000000
50 1     21.50400000     21.50400000      5.37600000     -0.00000011     -0.00000018      0.00000018
145 1     21.50400000     18.81600000      2.68800000     -0.00000005     -0.00000013      0.00000004
150 1     21.50400000     24.19200000      2.68800000     -0.00000437     -0.00000271      0.00000271
170 1     21.50400000     18.81600000      8.06400000     -0.00000000     -0.00000001      0.00000001
175 1     21.50400000     24.19200000      8.06400000     -0.00000005     -0.00000004      0.00000013
274 1     18.81600000     21.50400000      2.68800000     -0.00000015     -0.00000013      0.00000006
275 1     24.19200000     21.50400000      2.68800000     -0.00000031     -0.00000272      0.00000136
299 1     18.81600000     21.50400000      8.06400000     -0.00000001     -0.00000001      0.00000002
300 1     24.19200000     21.50400000      8.06400000      0.00000002     -0.00000004      0.00000006
394 1     18.81600000     18.81600000      0.00000000     -0.00000004     -0.00000005      0.00000000
395 1     24.19200000     18.81600000      0.00000000      0.00000003     -0.00000034      0.00000000
399 1     18.81600000     24.19200000      0.00000000     -0.00000086     -0.00000033      0.00000000
400 1     24.19200000     24.19200000      0.00000000      0.00027872      0.00028059      0.00000000
419 1     18.81600000     18.81600000      5.37600000     -0.00000001     -0.00000002      0.00000001
420 1     24.19200000     18.81600000      5.37600000      0.00000002     -0.00000006      0.00000004
424 1     18.81600000     24.19200000      5.37600000     -0.00000015     -0.00000006      0.00000013
425 1     24.19200000     24.19200000      5.37600000     -0.00000031     -0.00000136      0.00000272
51 1      0.00000000      0.00000000     10.75200000      0.00000002      0.00000000      0.00000000
52 1      5.37600000      0.00000000     10.75200000     -0.00000001      0.00000000     -0.00000003
56 1      0.00000000      5.37600000     10.75200000      0.00000001      0.00000000      0.00000000
57 1      5.37600000      5.37600000     10.75200000     -0.00000000      0.00000000     -0.00000000
76 1      0.00000000      0.00000000     16.12800000      0.00000002      0.00000000     -0.00000000
77 1      5.37600000      0.00000000     16.12800000     -0.00000001      0.00000000      0.00000003
81 1      0.00000000      5.37600000     16.12800000      0.00000001      0.00000000     -0.00000000
82 1      5.37600000      5.37600000     16.12800000      0.00000000      0.00000000     -0.00000000
176 1      0.00000000      2.68800000     13.44000000      0.00000000      0.00000000      0.00000000
177 1      5.37600000      2.68800000     13.44000000     -0.00000000      0.00000000      0.00000000
181 1      0.00000000      8.06400000     13.44000000      0.00000000     -0.00000000      0.00000000
182 1      5.37600000      8.06400000     13.44000000     -0.00000000     -0.00000000      0.00000000
301 1      2.68800000      0.00000000     13.44000000     -0.00000000      0.00000000      0.00000000
302 1      8.06400000      0.00000000     13.44000000      0.00000000      0.00000000      0.00000000
306 1      2.68800000      5.37600000     13.44000000     -0.00000000      0.00000000      0.00000000
307 1      8.06400000      5.37600000     13.44000000      0.00000000     -0.00000000      0.00000000
426 1      2.68800000      2.68800000     10.75200000      0.00000001     -0.00000001     -0.00000002
427 1      8.06400000      2.68800000     10.75200000      0.00000000     -0.00000000     -0.00000000
431 1      2.68800000      8.06400000     10.75200000      0.00000000     -0.00000000     -0.00000000
432 1      8.06400000      8.06400000     10.75200000      0.00000000     -0.00000000     -0.00000000
451 1      2.68800000      2.68800000     16.12800000      0.00000001     -0.00000001      0.00000002
452 1      8.06400000      2.68800000     16.12800000     -0.00000000      0.00000000     -0.00000000
456 1      2.68800000      8.06400000     16.12800000      0.00000000     -0.00000000     -0.00000000
457 1      8.06400000      8.06400000     16.12800000     -0.00000000     -0.00000000     -0.00000000
53 1     10.75200000      0.00000000     10.75200000      0.00000000      0.00000000     -0.00000000
54 1     16.12800000      0.00000000     10.75200000     -0.00000000      0.00000000     -0.00000000
58 1     10.75200000      5.37600000     10.75200000     -0.00000000      0.00000000     -0.00000000
59 1     16.12800000      5.37600000     10.75200000     -0.00000000      0.00000000     -0.00000000
78 1     10.75200000      0.00000000     16.12800000      0.00000000      0.00000000     -0.00000000
79 1     16.12800000      0.00000000     16.12800000      0.00000000      0.00000000     -0.00000000
83 1     10.75200000      5.37600000     16.12800000      0.00000000      0.00000000     -0.00000000
84 1     16.12800000      5.37600000     16.12800000      0.00000000      0.00000000     -0.00000000
178 1     10.75200000      2.68800000     13.44000000     -0.00000000      0.00000000      0.00000000
179 1     16.12800000      2.68800000     13.44000000     -0.00000000      0.00000000      0.00000000
183 1     10.75200000      8.06400000     13.44000000     -0.00000000     -0.00000000      0.00000000
184 1     16.12800000      8.06400000     13.44000000     -0.00000000     -0.00000000     -0.00000000
303 1     13.44000000      0.00000000     13.44000000      0.00000000      0.00000000      0.00000000
308 1     13.44000000      5.37600000     13.44000000      0.00000000      0.00000000      0.00000000
428 1     13.44000000      2.68800000     10.75200000      0.00000000     -0.00000000     -0.00000000
433 1     13.44000000      8.06400000     10.75200000      0.00000000     -0.00000000     -0.00000000
453 1     13.44000000      2.68800000     16.12800000     -0.00000000      0.00000000     -0.00000000
458 1     13.44000000      8.06400000     16.12800000     -0.00000000     -0.00000000     -0.00000000
55 1     21.50400000      0.00000000     10.75200000     -0.00000001      0.00000000      0.00000003
60 1     21.50400000      5.37600000     10.75200000      0.00000000      0.00000000     -0.00000000
80 1     21.50400000      0.00000000     16.12800000     -0.00000001      0.00000000     -0.00000003
85 1     21.50400000      5.37600000     16.12800000      0.00000000      0.00000000     -0.00000000
180 1     21.50400000      2.68800000     13.44000000      0.00000000      0.00000000      0.00000000
185 1     21.50400000      8.06400000     13.44000000      0.00000000     -0.00000000      0.00000000
304 1     18.81600000      0.00000000     13.44000000      0.00000000      0.00000000      0.00000000
305 1     24.19200000      0.00000000     13.44000000     -0.00000000      0.00000000      0.00000000
309 1     18.81600000      5.37600000     13.44000000      0.00000000      0.00000000      0.00000000
310 1     24.19200000      5.37600000     13.44000000     -0.00000000      0.00000000      0.00000000
429 1     18.81600000      2.68800000     10.75200000      0.00000000     -0.00000000     -0.00000000
430 1     24.19200000      2.68800000     10.75200000      0.00000001      0.00000001      0.00000002
434 1     18.81600000      8.06400000     10.75200000      0.00000000     -0.00000000     -0.00000000
435 1     24.19200000      8.06400000     10.75200000     -0.00000000     -0.00000000     -0.00000000
454 1     18.81600000      2.68800000     16.12800000      0.00000000      0.00000000     -0.00000000
455 1     24.19200000      2.68800000     16.12800000      0.00000001      0.00000001     -0.00000002
459 1     18.81600000      8.06400000     16.12800000      0.00000000     -0.00000000     -0.00000000
460 1     24.19200000      8.06400000     16.12800000     -0.00000000     -0.00000000     -0.00000000
61 1      0.00000000     10.75200000     10.75200000      0.00000000      0.00000000     -0.00000000
62 1      5.37600000     10.75200000     10.75200000     -0.00000000      0.00000000     -0.00000000
66 1      0.00000000     16.12800000     10.75200000      0.00000000      0.00000000     -0.00000000
67 1      5.37600000     16.12800000     10.75200000     -0.00000000      0.00000000     -0.00000000
86 1      0.00000000     10.75200000     16.12800000      0.00000000      0.00000000     -0.00000000
87 1      5.37600000     10.75200000     16.12800000     -0.00000000      0.00000000     -0.00000000
91 1      0.00000000     16.12800000     16.12800000      0.00000000     -0.00000000     -0.00000000
92 1      5.37600000     16.12800000     16.12800000     -0.00000000     -0.00000000     -0.00000000
186 1      0.00000000     13.44000000     13.44000000      0.00000000      0.00000000      0.00000000
187 1      5.37600000     13.44000000     13.44000000     -0.00000000      0.00000000      0.00000000
311 1      2.68800000     10.75200000     13.44000000      0.00000000      0.00000000      0.00000000
312 1      8.06400000     10.75200000     13.44000000      0.00000000      0.00000000      0.00000000
316 1      2.68800000     16.12800000     13.44000000      0.00000000     -0.00000000      0.00000000
317 1      8.06400000     16.12800000     13.44000000      0.00000000      0.00000000      0.00000000
436 1      2.68800000     13.44000000     10.75200000      0.00000000     -0.00000000     -0.00000000
437 1      8.06400000     13.44000000     10.75200000      0.00000000     -0.00000000     -0.00000000
461 1      2.68800000     13.44000000     16.12800000      0.00000000      0.00000000     -0.00000000
462 1      8.06400000     13.44000000     16.12800000      0.00000000      0.00000000      0.00000000
63 1     10.75200000     10.75200000     10.75200000     -0.00000000      0.00000000     -0.00000000
64 1     16.12800000     10.75200000     10.75200000     -0.00000000      0.00000000     -0.00000000
68 1     10.75200000     16.12800000     10.75200000      0.00000000      0.00000000      0.00000000
69 1     16.12800000     16.12800000     10.75200000      0.00000000      0.00000000     -0.00000000
88 1     10.75200000     10.75200000     16.12800000      0.00000000      0.00000000     -0.00000000
89 1     16.12800000     10.75200000     16.12800000      0.00000000      0.00000000     -0.00000000
93 1     10.75200000     16.12800000     16.12800000      0.00000000     -0.00000000     -0.00000000
94 1     16.12800000     16.12800000     16.12800000      0.00000000     -0.00000000     -0.00000000
188 1     10.75200000     13.44000000     13.44000000      0.00000000      0.00000000      0.00000000
189 1     16.12800000     13.44000000     13.44000000      0.00000000      0.00000000      0.00000000