4 atoms
1 atom types

0.0 5.376 xlo xhi
0.0 5.376 ylo yhi
0.0 5.376 zlo zhi
0.0 0.0 0.0 xy xz yz

Atom Type Labels

1 Ar

Atoms

1 Ar 0.00000000 0.00000000 0.00000000
2 Ar 0.00000000 2.68800000 2.68800000
3 Ar 2.68800000 0.00000000 2.68800000
4 Ar 2.68800000 2.68800000 0.00000000
