500  
2    

1    
  0.0070710678118655   0.0070710678118655   0.0000000000000000
  -0.0022884201   -0.0014587900   -0.0000000000
  -0.0000418101    0.0000068800   -0.0000000000
  -0.0000002101    0.0000000300    0.0000000000
  -0.0000002101    0.0000000300    0.0000000000
  -0.0000415401    0.0000067600   -0.0000000000
   0.0000068799   -0.0000418100   -0.0000000000
  -0.0000033401   -0.0000033400   -0.0000000000
  -0.0000001101   -0.0000000500    0.0000000000
  -0.0000000301    0.0000000300    0.0000000000
   0.0000004799    0.0000004800    0.0000000000
   0.0000000299   -0.0000002100    0.0000000000
  -0.0000000501   -0.0000001100    0.0000000000
  -0.0000000001    0.0000000000    0.0000000000
  -0.0000000001    0.0000000000    0.0000000000
   0.0000000299   -0.0000000300    0.0000000000
   0.0000000299   -0.0000002100    0.0000000000
   0.0000000299   -0.0000000300    0.0000000000
  -0.0000000001    0.0000000000    0.0000000000
  -0.0000000001    0.0000000000    0.0000000000
  -0.0000000501   -0.0000001100    0.0000000000
   0.0000067599   -0.0000415400   -0.0000000000
   0.0000004799    0.0000004800    0.0000000000
  -0.0000000301    0.0000000300    0.0000000000
  -0.0000001101   -0.0000000500    0.0000000000
  -0.0000033101   -0.0000033100   -0.0000000000
   0.0000068199    0.0000068200    0.0000000600
  -0.0000014201    0.0000004800   -0.0000019100
  -0.0000000701    0.0000000100   -0.0000000400
  -0.0000000701    0.0000000100    0.0000000400
  -0.0000014201    0.0000004800    0.0000019000
   0.0000004799   -0.0000014200   -0.0000019100
  -0.0000004201   -0.0000004200   -0.0000005100
  -0.0000000001    0.0000000000    0.0000000000
  -0.0000000001    0.0000000000    0.0000000000
   0.0000000999    0.0000001000    0.0000000000
   0.0000000099   -0.0000000700   -0.0000000400
  -0.0000000001    0.0000000000    0.0000000000
  -0.0000000001    0.0000000000    0.0000000000
  -0.0000000001    0.0000000000    0.0000000000
  -0.0000000001    0.0000000000    0.0000000000
   0.0000000099   -0.0000000700    0.0000000400
  -0.0000000001    0.0000000000    0.0000000000
  -0.0000000001    0.0000000000    0.0000000000
  -0.0000000001    0.0000000000    0.0000000000
  -0.0000000001    0.0000000000    0.0000000000
   0.0000004799   -0.0000014200    0.0000019000
   0.0000000999    0.0000001000    0.0000000000
  -0.0000000001    0.0000000000    0.0000000000
  -0.0000000001    0.0000000000    0.0000000000
  -0.0000004101   -0.0000004100    0.0000005100
   0.0000000299    0.0000000300    0.0000000000
  -0.0000000101    0.0000000100   -0.0000000400
  -0.0000000001    0.0000000000    0.0000000000
  -0.0000000001    0.0000000000    0.0000000000
  -0.0000000101    0.0000000100    0.0000000400
   0.0000000099   -0.0000000100   -0.0000000400
  -0.0000000001    0.0000000000    0.0000000000
  -0.0000000001    0.0000000000    0.0000000000
  -0.0000000001    0.0000000000    0.0000000000
  -0.0000000001    0.0000000000    0.0000000000
  -0.0000000001    0.0000000000    0.0000000000
  -0.0000000001    0.0000000000    0.0000000000
  -0.0000000001    0.0000000000    0.0000000000
  -0.0000000001    0.0000000000    0.0000000000
  -0.0000000001    0.0000000000    0.0000000000
  -0.0000000001    0.0000000000    0.0000000000
  -0.0000000001    0.0000000000    0.0000000000
  -0.0000000001    0.0000000000    0.0000000000
  -0.0000000001    0.0000000000    0.0000000000
  -0.0000000001    0.0000000000    0.0000000000
   0.0000000099   -0.0000000100    0.0000000400
  -0.0000000001    0.0000000000    0.0000000000
  -0.0000000001    0.0000000000    0.0000000000
  -0.0000000001    0.0000000000    0.0000000000
  -0.0000000001    0.0000000000    0.0000000000
   0.0000000299    0.0000000300    0.0000000000
  -0.0000000101    0.0000000100    0.0000000400
  -0.0000000001    0.0000000000    0.0000000000
  -0.0000000001    0.0000000000    0.0000000000
  -0.0000000101    0.0000000100   -0.0000000400
   0.0000000099   -0.0000000100    0.0000000400
  -0.0000000001    0.0000000000    0.0000000000
  -0.0000000001    0.0000000000    0.0000000000
  -0.0000000001    0.0000000000    0.0000000000
  -0.0000000001    0.0000000000    0.0000000000
  -0.0000000001    0.0000000000    0.0000000000
  -0.0000000001    0.0000000000    0.0000000000
  -0.0000000001    0.0000000000    0.0000000000
  -0.0000000001    0.0000000000    0.0000000000
  -0.0000000001    0.0000000000    0.0000000000
  -0.0000000001    0.0000000000    0.0000000000
  -0.0000000001    0.0000000000    0.0000000000
  -0.0000000001    0.0000000000    0.0000000000
  -0.0000000001    0.0000000000    0.0000000000
  -0.0000000001    0.0000000000    0.0000000000
   0.0000000099   -0.0000000100   -0.0000000400
  -0.0000000001    0.0000000000    0.0000000000
  -0.0000000001    0.0000000000    0.0000000000
  -0.0000000001    0.0000000000    0.0000000000
  -0.0000000001    0.0000000000    0.0000000000
   0.0000068199    0.0000068200   -0.0000000600
  -0.0000014201    0.0000004800    0.0000019100
  -0.0000000701    0.0000000100    0.0000000400
  -0.0000000701    0.0000000100   -0.0000000400
  -0.0000014201    0.0000004800   -0.0000019000
   0.0000004799   -0.0000014200    0.0000019100
  -0.0000004201   -0.0000004200    0.0000005100
  -0.0000000001    0.0000000000    0.0000000000
  -0.0000000001    0.0000000000    0.0000000000
   0.0000000999    0.0000001000    0.0000000000
   0.0000000099   -0.0000000700    0.0000000400
  -0.0000000001    0.0000000000    0.0000000000
  -0.0000000001    0.0000000000    0.0000000000
  -0.0000000001    0.0000000000    0.0000000000
  -0.0000000001    0.0000000000    0.0000000000
   0.0000000099   -0.0000000700   -0.0000000400
  -0.0000000001    0.0000000000    0.0000000000
  -0.0000000001    0.0000000000    0.0000000000
  -0.0000000001    0.0000000000    0.0000000000
  -0.0000000001    0.0000000000    0.0000000000
   0.0000004799   -0.0000014200   -0.0000019000
   0.0000000999    0.0000001000    0.0000000000
  -0.0000000001    0.0000000000    0.0000000000
  -0.0000000001    0.0000000000    0.0000000000
  -0.0000004101   -0.0000004100   -0.0000005100
  -0.0000026001    0.0002024000    0.0002050000
  -0.0000050501   -0.0000021500   -0.0000029000
  -0.0000000801   -0.0000000100   -0.0000000200
  -0.0000000401    0.0000000200    0.0000000100
  -0.0000011801    0.0000017000    0.0000009600
   0.0000000999   -0.0000006100   -0.0000002400
  -0.0000001201   -0.0000002000   -0.0000000700
  -0.0000000001    0.0000000000    0.0000000000
  -0.0000000001    0.0000000000    0.0000000000
   0.0000000599   -0.0000000200   -0.0000000100
  -0.0000000001    0.0000000000    0.0000000000
  -0.0000000001    0.0000000000    0.0000000000
  -0.0000000001    0.0000000000    0.0000000000
  -0.0000000001    0.0000000000    0.0000000000
  -0.0000000001    0.0000000000    0.0000000000
   0.0000000999   -0.0000006100    0.0000002400
   0.0000000599   -0.0000000200    0.0000000100
  -0.0000000001    0.0000000000    0.0000000000
  -0.0000000001    0.0000000000    0.0000000000
  -0.0000001201   -0.0000002000    0.0000000700
  -0.0000015401    0.0001982900   -0.0001998300
  -0.0000011801    0.0000017100   -0.0000009600
  -0.0000000401    0.0000000200   -0.0000000100
  -0.0000000701   -0.0000000100    0.0000000200
  -0.0000050101   -0.0000021300    0.0000028700
   0.0000000999    0.0000000200   -0.0000002400
  -0.0000000601   -0.0000000200   -0.0000001300
  -0.0000000001    0.0000000000    0.0000000000
  -0.0000000001    0.0000000000    0.0000000000
  -0.0000000001    0.0000000400    0.0000000400
   0.0000000099   -0.0000000300   -0.0000000400
  -0.0000000101   -0.0000000200   -0.0000000200
  -0.0000000001    0.0000000000    0.0000000000
  -0.0000000001    0.0000000000    0.0000000000
   0.0000000099    0.0000000000    0.0000000000
  -0.0000000001    0.0000000000    0.0000000000
  -0.0000000001    0.0000000000    0.0000000000
  -0.0000000001    0.0000000000    0.0000000000
  -0.0000000001    0.0000000000    0.0000000000
  -0.0000000001    0.0000000000    0.0000000000
   0.0000000099   -0.0000000300    0.0000000400
   0.0000000099    0.0000000000    0.0000000000
  -0.0000000001    0.0000000000    0.0000000000
  -0.0000000001    0.0000000000    0.0000000000
  -0.0000000101   -0.0000000200    0.0000000200
   0.0000000999    0.0000000200    0.0000002400
  -0.0000000001    0.0000000400   -0.0000000400
  -0.0000000001    0.0000000000    0.0000000000
  -0.0000000001    0.0000000000    0.0000000000
  -0.0000000601   -0.0000000200    0.0000001300
  -0.0000000001    0.0000000000    0.0000000000
  -0.0000000001    0.0000000000    0.0000000000
  -0.0000000001    0.0000000000    0.0000000000
  -0.0000000001    0.0000000000    0.0000000000
  -0.0000000001    0.0000000000    0.0000000000
  -0.0000000001    0.0000000000    0.0000000000
  -0.0000000001    0.0000000000    0.0000000000
  -0.0000000001    0.0000000000    0.0000000000
  -0.0000000001    0.0000000000    0.0000000000
  -0.0000000001    0.0000000000    0.0000000000
  -0.0000000001    0.0000000000    0.0000000000
  -0.0000000001    0.0000000000    0.0000000000
  -0.0000000001    0.0000000000    0.0000000000
  -0.0000000001    0.0000000000    0.0000000000
  -0.0000000001    0.0000000000    0.0000000000
  -0.0000000001    0.0000000000    0.0000000000
  -0.0000000001    0.0000000000    0.0000000000
  -0.0000000001    0.0000000000    0.0000000000
  -0.0000000001    0.0000000000    0.0000000000
  -0.0000000001    0.0000000000    0.0000000000
  -0.0000000001    0.0000000000    0.0000000000
  -0.0000000001    0.0000000000    0.0000000000
  -0.0000000001    0.0000000000    0.0000000000
  -0.0000000001    0.0000000000    0.0000000000
  -0.0000000001    0.0000000000    0.0000000000
   0.0000000999    0.0000000200    0.0000002400
  -0.0000000601   -0.0000000200    0.0000001300
  -0.0000000001    0.0000000000    0.0000000000
  -0.0000000001    0.0000000000    0.0000000000
  -0.0000000001    0.0000000400   -0.0000000400
   0.0000000099   -0.0000000300    0.0000000400
  -0.0000000101   -0.0000000200    0.0000000200
  -0.0000000001    0.0000000000    0.0000000000
  -0.0000000001    0.0000000000    0.0000000000
   0.0000000099    0.0000000000    0.0000000000
  -0.0000000001    0.0000000000    0.0000000000
  -0.0000000001    0.0000000000    0.0000000000
  -0.0000000001    0.0000000000    0.0000000000
  -0.0000000001    0.0000000000    0.0000000000
  -0.0000000001    0.0000000000    0.0000000000
   0.0000000099   -0.0000000300   -0.0000000400
   0.0000000099    0.0000000000    0.0000000000
  -0.0000000001    0.0000000000    0.0000000000
  -0.0000000001    0.0000000000    0.0000000000
  -0.0000000101   -0.0000000200   -0.0000000200
   0.0000000999    0.0000000200   -0.0000002400
  -0.0000000001    0.0000000400    0.0000000400
  -0.0000000001    0.0000000000    0.0000000000
  -0.0000000001    0.0000000000    0.0000000000
  -0.0000000601   -0.0000000200   -0.0000001300
  -0.0000026001    0.0002024000   -0.0002050000
  -0.0000050501   -0.0000021500    0.0000029000
  -0.0000000801   -0.0000000100    0.0000000200
  -0.0000000401    0.0000000200   -0.0000000100
  -0.0000011801    0.0000017000   -0.0000009600
   0.0000000999   -0.0000006100    0.0000002400
  -0.0000001201   -0.0000002000    0.0000000700
  -0.0000000001    0.0000000000    0.0000000000
  -0.0000000001    0.0000000000    0.0000000000
   0.0000000599   -0.0000000200    0.0000000100
  -0.0000000001    0.0000000000    0.0000000000
  -0.0000000001    0.0000000000    0.0000000000
  -0.0000000001    0.0000000000    0.0000000000
  -0.0000000001    0.0000000000    0.0000000000
  -0.0000000001    0.0000000000    0.0000000000
   0.0000000999   -0.0000006100   -0.0000002400
   0.0000000599   -0.0000000200   -0.0000000100
  -0.0000000001    0.0000000000    0.0000000000
  -0.0000000001    0.0000000000    0.0000000000
  -0.0000001201   -0.0000002000   -0.0000000700
  -0.0000015401    0.0001982900    0.0001998300
  -0.0000011801    0.0000017100    0.0000009600
  -0.0000000401    0.0000000200    0.0000000100
  -0.0000000701   -0.0000000100   -0.0000000200
  -0.0000050101   -0.0000021300   -0.0000028700
   0.0004047899   -0.0000052000    0.0004099900
  -0.0000012301    0.0000002000   -0.0000004800
  -0.0000000001    0.0000000000    0.0000000000
  -0.0000012201    0.0000002000    0.0000004700
   0.0003965799   -0.0000030700   -0.0003996500
  -0.0000043001   -0.0000101100   -0.0000058100
  -0.0000003901   -0.0000002500   -0.0000001500
  -0.0000000001    0.0000000000    0.0000000000
  -0.0000000401    0.0000001100    0.0000000300
   0.0000034199   -0.0000023500   -0.0000019200
  -0.0000000201   -0.0000001500   -0.0000000400
  -0.0000000001    0.0000000000    0.0000000000
  -0.0000000001    0.0000000000    0.0000000000
  -0.0000000001    0.0000000000    0.0000000000
   0.0000000399   -0.0000000800   -0.0000000300
   0.0000000399   -0.0000000800    0.0000000300
  -0.0000000001    0.0000000000    0.0000000000
  -0.0000000001    0.0000000000    0.0000000000
  -0.0000000001    0.0000000000    0.0000000000
  -0.0000000201   -0.0000001500    0.0000000400
   0.0000034099   -0.0000023700    0.0000019300
  -0.0000000401    0.0000001100   -0.0000000300
  -0.0000000001    0.0000000000    0.0000000000
  -0.0000003901   -0.0000002400    0.0000001500
  -0.0000042701   -0.0000100100    0.0000057400
   0.0000000399    0.0000002000   -0.0000004700
  -0.0000000601    0.0000000200   -0.0000000800
  -0.0000000001    0.0000000000    0.0000000000
  -0.0000000601    0.0000000200    0.0000000800
   0.0000000399    0.0000002000    0.0000004700
  -0.0000000401   -0.0000001300   -0.0000002700
  -0.0000000401   -0.0000000200   -0.0000000500
  -0.0000000001    0.0000000000    0.0000000000
  -0.0000000001    0.0000000100    0.0000000100
   0.0000000799   -0.0000000100   -0.0000000900
  -0.0000000001    0.0000000000    0.0000000000
  -0.0000000001    0.0000000000    0.0000000000
  -0.0000000001    0.0000000000    0.0000000000
  -0.0000000001    0.0000000000    0.0000000000
  -0.0000000001    0.0000000000    0.0000000000
  -0.0000000001    0.0000000000    0.0000000000
  -0.0000000001    0.0000000000    0.0000000000
  -0.0000000001    0.0000000000    0.0000000000
  -0.0000000001    0.0000000000    0.0000000000
  -0.0000000001    0.0000000000    0.0000000000
   0.0000000799   -0.0000000100    0.0000000900
  -0.0000000001    0.0000000100   -0.0000000100
  -0.0000000001    0.0000000000    0.0000000000
  -0.0000000401   -0.0000000200    0.0000000500
  -0.0000000401   -0.0000001300    0.0000002700
  -0.0000000001    0.0000000000    0.0000000000
  -0.0000000001    0.0000000000    0.0000000000
  -0.0000000001    0.0000000000    0.0000000000
  -0.0000000001    0.0000000000    0.0000000000
  -0.0000000001    0.0000000000    0.0000000000
  -0.0000000001    0.0000000000    0.0000000000
  -0.0000000001    0.0000000000    0.0000000000
  -0.0000000001    0.0000000000    0.0000000000
  -0.0000000001    0.0000000000    0.0000000000
  -0.0000000001    0.0000000000    0.0000000000
  -0.0000000001    0.0000000000    0.0000000000
  -0.0000000001    0.0000000000    0.0000000000
  -0.0000000001    0.0000000000    0.0000000000
  -0.0000000001    0.0000000000    0.0000000000
  -0.0000000001    0.0000000000    0.0000000000
  -0.0000000001    0.0000000000    0.0000000000
  -0.0000000001    0.0000000000    0.0000000000
  -0.0000000001    0.0000000000    0.0000000000
  -0.0000000001    0.0000000000    0.0000000000
  -0.0000000001    0.0000000000    0.0000000000
  -0.0000000001    0.0000000000    0.0000000000
  -0.0000000001    0.0000000000    0.0000000000
  -0.0000000001    0.0000000000    0.0000000000
  -0.0000000001    0.0000000000    0.0000000000
  -0.0000000001    0.0000000000    0.0000000000
   0.0000000399    0.0000002000    0.0000004700
  -0.0000000601    0.0000000200    0.0000000800
  -0.0000000001    0.0000000000    0.0000000000
  -0.0000000601    0.0000000200   -0.0000000800
   0.0000000399    0.0000002000   -0.0000004700
  -0.0000000401   -0.0000001300    0.0000002700
  -0.0000000401   -0.0000000200    0.0000000500
  -0.0000000001    0.0000000000    0.0000000000
  -0.0000000001    0.0000000100   -0.0000000100
   0.0000000799   -0.0000000100    0.0000000900
  -0.0000000001    0.0000000000    0.0000000000
  -0.0000000001    0.0000000000    0.0000000000
  -0.0000000001    0.0000000000    0.0000000000
  -0.0000000001    0.0000000000    0.0000000000
  -0.0000000001    0.0000000000    0.0000000000
  -0.0000000001    0.0000000000    0.0000000000
  -0.0000000001    0.0000000000    0.0000000000
  -0.0000000001    0.0000000000    0.0000000000
  -0.0000000001    0.0000000000    0.0000000000
  -0.0000000001    0.0000000000    0.0000000000
   0.0000000799   -0.0000000100   -0.0000000900
  -0.0000000001    0.0000000100    0.0000000100
  -0.0000000001    0.0000000000    0.0000000000
  -0.0000000401   -0.0000000200   -0.0000000500
  -0.0000000401   -0.0000001300   -0.0000002700
   0.0004047899   -0.0000052000   -0.0004099900
  -0.0000012301    0.0000002000    0.0000004800
  -0.0000000001    0.0000000000    0.0000000000
  -0.0000012201    0.0000002000   -0.0000004700
   0.0003965799   -0.0000030700    0.0003996500
  -0.0000043001   -0.0000101100    0.0000058100
  -0.0000003901   -0.0000002500    0.0000001500
  -0.0000000001    0.0000000000    0.0000000000
  -0.0000000401    0.0000001100   -0.0000000300
   0.0000034199   -0.0000023500    0.0000019200
  -0.0000000201   -0.0000001500    0.0000000400
  -0.0000000001    0.0000000000    0.0000000000
  -0.0000000001    0.0000000000    0.0000000000
  -0.0000000001    0.0000000000    0.0000000000
   0.0000000399   -0.0000000800    0.0000000300
   0.0000000399   -0.0000000800   -0.0000000300
  -0.0000000001    0.0000000000    0.0000000000
  -0.0000000001    0.0000000000    0.0000000000
  -0.0000000001    0.0000000000    0.0000000000
  -0.0000000201   -0.0000001500   -0.0000000400
   0.0000034099   -0.0000023700   -0.0000019300
  -0.0000000401    0.0000001100    0.0000000300
  -0.0000000001    0.0000000000    0.0000000000
  -0.0000003901   -0.0000002400   -0.0000001500
  -0.0000042701   -0.0000100100   -0.0000057400
   0.0004137799    0.0004137800    0.0000000000
  -0.0000008501   -0.0000002200   -0.0000000000
  -0.0000000001    0.0000000000    0.0000000000
  -0.0000003701    0.0000002600    0.0000000000
  -0.0000015301   -0.0000025900   -0.0000000000
  -0.0000002201   -0.0000008500   -0.0000000000
  -0.0000000701   -0.0000000700    0.0000000000
  -0.0000000001    0.0000000000    0.0000000000
   0.0000000099    0.0000000100    0.0000000000
   0.0000002599   -0.0000003700    0.0000000000
  -0.0000000001    0.0000000000    0.0000000000
  -0.0000000001    0.0000000000    0.0000000000
  -0.0000000001    0.0000000000    0.0000000000
  -0.0000000001    0.0000000000    0.0000000000
  -0.0000000001    0.0000000000    0.0000000000
   0.0000002599   -0.0000003700    0.0000000000
   0.0000000099    0.0000000100    0.0000000000
  -0.0000000001    0.0000000000    0.0000000000
  -0.0000000701   -0.0000000700    0.0000000000
  -0.0000002201   -0.0000008500   -0.0000000000
  -0.0000025901   -0.0000015300   -0.0000000000
  -0.0000003701    0.0000002600    0.0000000000
  -0.0000000001    0.0000000000    0.0000000000
  -0.0000008501   -0.0000002200   -0.0000000000
   0.0003920199    0.0003920200    0.0000000000
  -0.0000011801   -0.0000011800   -0.0000038600
  -0.0000001501   -0.0000000300   -0.0000001200
  -0.0000000001    0.0000000000    0.0000000000
  -0.0000000601    0.0000000600    0.0000000600
   0.0000007399    0.0000007500    0.0000000100
  -0.0000000301   -0.0000001500   -0.0000001200
  -0.0000000201   -0.0000000200   -0.0000000200
  -0.0000000001    0.0000000000    0.0000000000
  -0.0000000001    0.0000000000    0.0000000000
   0.0000000599   -0.0000000600   -0.0000000600
  -0.0000000001    0.0000000000    0.0000000000
  -0.0000000001    0.0000000000    0.0000000000
  -0.0000000001    0.0000000000    0.0000000000
  -0.0000000001    0.0000000000    0.0000000000
  -0.0000000001    0.0000000000    0.0000000000
   0.0000000599   -0.0000000600    0.0000000600
  -0.0000000001    0.0000000000    0.0000000000
  -0.0000000001    0.0000000000    0.0000000000
  -0.0000000201   -0.0000000200    0.0000000200
  -0.0000000301   -0.0000001500    0.0000001200
   0.0000007499    0.0000007400    0.0000000100
  -0.0000000601    0.0000000600   -0.0000000600
  -0.0000000001    0.0000000000    0.0000000000
  -0.0000001501   -0.0000000300    0.0000001200
  -0.0000011801   -0.0000011800    0.0000038400
  -0.0000000001    0.0000000000   -0.0000000300
  -0.0000000001    0.0000000000    0.0000000000
  -0.0000000001    0.0000000000    0.0000000000
  -0.0000000001    0.0000000000    0.0000000000
   0.0000000099    0.0000000100    0.0000000000
  -0.0000000001    0.0000000000    0.0000000000
  -0.0000000001    0.0000000000    0.0000000000
  -0.0000000001    0.0000000000    0.0000000000
  -0.0000000001    0.0000000000    0.0000000000
  -0.0000000001    0.0000000000    0.0000000000
  -0.0000000001    0.0000000000    0.0000000000
  -0.0000000001    0.0000000000    0.0000000000
  -0.0000000001    0.0000000000    0.0000000000
  -0.0000000001    0.0000000000    0.0000000000
  -0.0000000001    0.0000000000    0.0000000000
  -0.0000000001    0.0000000000    0.0000000000
  -0.0000000001    0.0000000000    0.0000000000
  -0.0000000001    0.0000000000    0.0000000000
  -0.0000000001    0.0000000000    0.0000000000
  -0.0000000001    0.0000000000    0.0000000000
   0.0000000099    0.0000000100    0.0000000000
  -0.0000000001    0.0000000000    0.0000000000
  -0.0000000001    0.0000000000    0.0000000000
  -0.0000000001    0.0000000000    0.0000000000
  -0.0000000001    0.0000000000    0.0000000300
  -0.0000000001    0.0000000000    0.0000000300
  -0.0000000001    0.0000000000    0.0000000000
  -0.0000000001    0.0000000000    0.0000000000
  -0.0000000001    0.0000000000    0.0000000000
   0.0000000099    0.0000000100    0.0000000000
  -0.0000000001    0.0000000000    0.0000000000
  -0.0000000001    0.0000000000    0.0000000000
  -0.0000000001    0.0000000000    0.0000000000
  -0.0000000001    0.0000000000    0.0000000000
  -0.0000000001    0.0000000000    0.0000000000
  -0.0000000001    0.0000000000    0.0000000000
  -0.0000000001    0.0000000000    0.0000000000
  -0.0000000001    0.0000000000    0.0000000000
  -0.0000000001    0.0000000000    0.0000000000
  -0.0000000001    0.0000000000    0.0000000000
  -0.0000000001    0.0000000000    0.0000000000
  -0.0000000001    0.0000000000    0.0000000000
  -0.0000000001    0.0000000000    0.0000000000
  -0.0000000001    0.0000000000    0.0000000000
  -0.0000000001    0.0000000000    0.0000000000
   0.0000000099    0.0000000100    0.0000000000
  -0.0000000001    0.0000000000    0.0000000000
  -0.0000000001    0.0000000000    0.0000000000
  -0.0000000001    0.0000000000    0.0000000000
  -0.0000000001    0.0000000000   -0.0000000300
  -0.0000011801   -0.0000011800    0.0000038600
  -0.0000001501   -0.0000000300    0.0000001200
  -0.0000000001    0.0000000000    0.0000000000
  -0.0000000601    0.0000000600   -0.0000000600
   0.0000007399    0.0000007500   -0.0000000100
  -0.0000000301   -0.0000001500    0.0000001200
  -0.0000000201   -0.0000000200    0.0000000200
  -0.0000000001    0.0000000000    0.0000000000
  -0.0000000001    0.0000000000    0.0000000000
   0.0000000599   -0.0000000600    0.0000000600
  -0.0000000001    0.0000000000    0.0000000000
  -0.0000000001    0.0000000000    0.0000000000
  -0.0000000001    0.0000000000    0.0000000000
  -0.0000000001    0.0000000000    0.0000000000
  -0.0000000001    0.0000000000    0.0000000000
   0.0000000599   -0.0000000600   -0.0000000600
  -0.0000000001    0.0000000000    0.0000000000
  -0.0000000001    0.0000000000    0.0000000000
  -0.0000000201   -0.0000000200   -0.0000000200
  -0.0000000301   -0.0000001500   -0.0000001200
   0.0000007499    0.0000007400   -0.0000000100
  -0.0000000601    0.0000000600    0.0000000600
  -0.0000000001    0.0000000000    0.0000000000
  -0.0000001501   -0.0000000300   -0.0000001200
  -0.0000011801   -0.0000011800   -0.0000038400

126  
  0.0070710678118655   0.0070710678118655   0.0000000000000000
  -0.0000015404    0.0001982896    0.0001998300
  -0.0000011804    0.0000017096    0.0000009600
  -0.0000000404    0.0000000196    0.0000000100
  -0.0000000704   -0.0000000104   -0.0000000200
  -0.0000050104   -0.0000021304   -0.0000028700
  -0.0000026004    0.0002023996   -0.0002050000
  -0.0000050504   -0.0000021504    0.0000029000
  -0.0000000804   -0.0000000104    0.0000000200
  -0.0000000404    0.0000000196   -0.0000000100
  -0.0000011804    0.0000016996   -0.0000009600
   0.0000000996   -0.0000006104    0.0000002400
  -0.0000001204   -0.0000002004    0.0000000700
  -0.0000000004   -0.0000000004   -0.0000000000
  -0.0000000004   -0.0000000004   -0.0000000000
   0.0000000596   -0.0000000204    0.0000000100
  -0.0000000004   -0.0000000004   -0.0000000000
  -0.0000000004   -0.0000000004   -0.0000000000
  -0.0000000004   -0.0000000004   -0.0000000000
  -0.0000000004   -0.0000000004   -0.0000000000
  -0.0000000004   -0.0000000004   -0.0000000000
   0.0000000996   -0.0000006104   -0.0000002400
   0.0000000596   -0.0000000204   -0.0000000100
  -0.0000000004   -0.0000000004   -0.0000000000
  -0.0000000004   -0.0000000004   -0.0000000000
  -0.0000001204   -0.0000002004   -0.0000000700
  -0.0000015404    0.0001982896   -0.0001998300
  -0.0000011804    0.0000017096   -0.0000009600
  -0.0000000404    0.0000000196   -0.0000000100
  -0.0000000704   -0.0000000104    0.0000000200
  -0.0000050104   -0.0000021304    0.0000028700
  -0.0000026004    0.0002023996    0.0002050000
  -0.0000050504   -0.0000021504   -0.0000029000
  -0.0000000804   -0.0000000104   -0.0000000200
  -0.0000000404    0.0000000196    0.0000000100
  -0.0000011804    0.0000016996    0.0000009600
   0.0000000996   -0.0000006104   -0.0000002400
  -0.0000001204   -0.0000002004   -0.0000000700
  -0.0000000004   -0.0000000004   -0.0000000000
  -0.0000000004   -0.0000000004   -0.0000000000
   0.0000000596   -0.0000000204   -0.0000000100
  -0.0000000004   -0.0000000004   -0.0000000000
  -0.0000000004   -0.0000000004   -0.0000000000
  -0.0000000004   -0.0000000004   -0.0000000000
  -0.0000000004   -0.0000000004   -0.0000000000
  -0.0000000004   -0.0000000004   -0.0000000000
   0.0000000996   -0.0000006104    0.0000002400
   0.0000000596   -0.0000000204    0.0000000100
  -0.0000000004   -0.0000000004   -0.0000000000
  -0.0000000004   -0.0000000004   -0.0000000000
  -0.0000001204   -0.0000002004    0.0000000700
   0.0000000996    0.0000000196    0.0000002400
  -0.0000000004    0.0000000396   -0.0000000400
  -0.0000000004   -0.0000000004   -0.0000000000
  -0.0000000004   -0.0000000004   -0.0000000000
  -0.0000000604   -0.0000000204    0.0000001300
   0.0000000996    0.0000000196   -0.0000002400
  -0.0000000604   -0.0000000204   -0.0000001300
  -0.0000000004   -0.0000000004   -0.0000000000
  -0.0000000004   -0.0000000004   -0.0000000000
  -0.0000000004    0.0000000396    0.0000000400
   0.0000000096   -0.0000000304   -0.0000000400
  -0.0000000104   -0.0000000204   -0.0000000200
  -0.0000000004   -0.0000000004   -0.0000000000
  -0.0000000004   -0.0000000004   -0.0000000000
   0.0000000096   -0.0000000004   -0.0000000000
  -0.0000000004   -0.0000000004   -0.0000000000
  -0.0000000004   -0.0000000004   -0.0000000000
  -0.0000000004   -0.0000000004   -0.0000000000
  -0.0000000004   -0.0000000004   -0.0000000000
  -0.0000000004   -0.0000000004   -0.0000000000
   0.0000000096   -0.0000000304    0.0000000400
   0.0000000096   -0.0000000004   -0.0000000000
  -0.0000000004   -0.0000000004   -0.0000000000
  -0.0000000004   -0.0000000004   -0.0000000000
  -0.0000000104   -0.0000000204    0.0000000200
  -0.0000000004   -0.0000000004   -0.0000000000
  -0.0000000004   -0.0000000004   -0.0000000000
  -0.0000000004   -0.0000000004   -0.0000000000
  -0.0000000004   -0.0000000004   -0.0000000000
  -0.0000000004   -0.0000000004   -0.0000000000
  -0.0000000004   -0.0000000004   -0.0000000000
  -0.0000000004   -0.0000000004   -0.0000000000
  -0.0000000004   -0.0000000004   -0.0000000000
  -0.0000000004   -0.0000000004   -0.0000000000
  -0.0000000004   -0.0000000004   -0.0000000000
  -0.0000000004   -0.0000000004   -0.0000000000
  -0.0000000004   -0.0000000004   -0.0000000000
  -0.0000000004   -0.0000000004   -0.0000000000
  -0.0000000004   -0.0000000004   -0.0000000000
  -0.0000000004   -0.0000000004   -0.0000000000
  -0.0000000004   -0.0000000004   -0.0000000000
  -0.0000000004   -0.0000000004   -0.0000000000
  -0.0000000004   -0.0000000004   -0.0000000000
  -0.0000000004   -0.0000000004   -0.0000000000
  -0.0000000004   -0.0000000004   -0.0000000000
  -0.0000000004   -0.0000000004   -0.0000000000
  -0.0000000004   -0.0000000004   -0.0000000000
  -0.0000000004   -0.0000000004   -0.0000000000
  -0.0000000004   -0.0000000004   -0.0000000000
  -0.0000000004   -0.0000000004   -0.0000000000
   0.0000000996    0.0000000196   -0.0000002400
  -0.0000000004    0.0000000396    0.0000000400
  -0.0000000004   -0.0000000004   -0.0000000000
  -0.0000000004   -0.0000000004   -0.0000000000
  -0.0000000604   -0.0000000204   -0.0000001300
   0.0000000996    0.0000000196    0.0000002400
  -0.0000000604   -0.0000000204    0.0000001300
  -0.0000000004   -0.0000000004   -0.0000000000