500  
2    

1    
  0.0070710678118655   0.0000000000000000   0.0070710678118655
  -0.0022554398   -0.0000000000   -0.0030850700
  -0.0000418098   -0.0000000000    0.0000068800
  -0.0000002098    0.0000000000    0.0000000300
  -0.0000002098    0.0000000000    0.0000000300
  -0.0000415398   -0.0000000000    0.0000067600
   0.0000068202    0.0000000600    0.0000068200
  -0.0000014198   -0.0000019100    0.0000004800
  -0.0000000698   -0.0000000400    0.0000000100
  -0.0000000698    0.0000000400    0.0000000100
  -0.0000014198    0.0000019000    0.0000004800
   0.0000000302    0.0000000000    0.0000000300
  -0.0000000098   -0.0000000400    0.0000000100
   0.0000000002    0.0000000000    0.0000000000
   0.0000000002    0.0000000000    0.0000000000
  -0.0000000098    0.0000000400    0.0000000100
   0.0000000302    0.0000000000    0.0000000300
  -0.0000000098    0.0000000400    0.0000000100
   0.0000000002    0.0000000000    0.0000000000
   0.0000000002    0.0000000000    0.0000000000
  -0.0000000098   -0.0000000400    0.0000000100
   0.0000068202   -0.0000000600    0.0000068200
  -0.0000014198    0.0000019100    0.0000004800
  -0.0000000698    0.0000000400    0.0000000100
  -0.0000000698   -0.0000000400    0.0000000100
  -0.0000014198   -0.0000019000    0.0000004800
   0.0000068802    0.0000000000   -0.0000418100
  -0.0000033398   -0.0000000000   -0.0000033400
  -0.0000001098    0.0000000000   -0.0000000500
  -0.0000000298    0.0000000000    0.0000000300
   0.0000004802    0.0000000000    0.0000004800
   0.0000004802   -0.0000019100   -0.0000014200
  -0.0000004198   -0.0000005100   -0.0000004200
   0.0000000002    0.0000000000    0.0000000000
   0.0000000002    0.0000000000    0.0000000000
   0.0000001002    0.0000000000    0.0000001000
   0.0000000102   -0.0000000400   -0.0000000100
   0.0000000002    0.0000000000    0.0000000000
   0.0000000002    0.0000000000    0.0000000000
   0.0000000002    0.0000000000    0.0000000000
   0.0000000002    0.0000000000    0.0000000000
   0.0000000102    0.0000000400   -0.0000000100
   0.0000000002    0.0000000000    0.0000000000
   0.0000000002    0.0000000000    0.0000000000
   0.0000000002    0.0000000000    0.0000000000
   0.0000000002    0.0000000000    0.0000000000
   0.0000004802    0.0000019100   -0.0000014200
  -0.0000004198    0.0000005100   -0.0000004200
   0.0000000002    0.0000000000    0.0000000000
   0.0000000002    0.0000000000    0.0000000000
   0.0000001002    0.0000000000    0.0000001000
   0.0000000302    0.0000000000   -0.0000002100
  -0.0000000498    0.0000000000   -0.0000001100
   0.0000000002    0.0000000000    0.0000000000
   0.0000000002    0.0000000000    0.0000000000
   0.0000000302    0.0000000000   -0.0000000300
   0.0000000102   -0.0000000400   -0.0000000700
   0.0000000002    0.0000000000    0.0000000000
   0.0000000002    0.0000000000    0.0000000000
   0.0000000002    0.0000000000    0.0000000000
   0.0000000002    0.0000000000    0.0000000000
   0.0000000002    0.0000000000    0.0000000000
   0.0000000002    0.0000000000    0.0000000000
   0.0000000002    0.0000000000    0.0000000000
   0.0000000002    0.0000000000    0.0000000000
   0.0000000002    0.0000000000    0.0000000000
   0.0000000002    0.0000000000    0.0000000000
   0.0000000002    0.0000000000    0.0000000000
   0.0000000002    0.0000000000    0.0000000000
   0.0000000002    0.0000000000    0.0000000000
   0.0000000002    0.0000000000    0.0000000000
   0.0000000102    0.0000000400   -0.0000000700
   0.0000000002    0.0000000000    0.0000000000
   0.0000000002    0.0000000000    0.0000000000
   0.0000000002    0.0000000000    0.0000000000
   0.0000000002    0.0000000000    0.0000000000
   0.0000000302    0.0000000000   -0.0000002100
   0.0000000302    0.0000000000   -0.0000000300
   0.0000000002    0.0000000000    0.0000000000
   0.0000000002    0.0000000000    0.0000000000
  -0.0000000498    0.0000000000   -0.0000001100
   0.0000000102    0.0000000400   -0.0000000700
   0.0000000002    0.0000000000    0.0000000000
   0.0000000002    0.0000000000    0.0000000000
   0.0000000002    0.0000000000    0.0000000000
   0.0000000002    0.0000000000    0.0000000000
   0.0000000002    0.0000000000    0.0000000000
   0.0000000002    0.0000000000    0.0000000000
   0.0000000002    0.0000000000    0.0000000000
   0.0000000002    0.0000000000    0.0000000000
   0.0000000002    0.0000000000    0.0000000000
   0.0000000002    0.0000000000    0.0000000000
   0.0000000002    0.0000000000    0.0000000000
   0.0000000002    0.0000000000    0.0000000000
   0.0000000002    0.0000000000    0.0000000000
   0.0000000002    0.0000000000    0.0000000000
   0.0000000102   -0.0000000400   -0.0000000700
   0.0000000002    0.0000000000    0.0000000000
   0.0000000002    0.0000000000    0.0000000000
   0.0000000002    0.0000000000    0.0000000000
   0.0000000002    0.0000000000    0.0000000000
   0.0000067602    0.0000000000   -0.0000415400
   0.0000004802    0.0000000000    0.0000004800
  -0.0000000298    0.0000000000    0.0000000300
  -0.0000001098    0.0000000000   -0.0000000500
  -0.0000033098   -0.0000000000   -0.0000033100
   0.0000004802    0.0000019000   -0.0000014200
   0.0000001002    0.0000000000    0.0000001000
   0.0000000002    0.0000000000    0.0000000000
   0.0000000002    0.0000000000    0.0000000000
  -0.0000004098    0.0000005100   -0.0000004100
   0.0000000102    0.0000000400   -0.0000000100
   0.0000000002    0.0000000000    0.0000000000
   0.0000000002    0.0000000000    0.0000000000
   0.0000000002    0.0000000000    0.0000000000
   0.0000000002    0.0000000000    0.0000000000
   0.0000000102   -0.0000000400   -0.0000000100
   0.0000000002    0.0000000000    0.0000000000
   0.0000000002    0.0000000000    0.0000000000
   0.0000000002    0.0000000000    0.0000000000
   0.0000000002    0.0000000000    0.0000000000
   0.0000004802   -0.0000019000   -0.0000014200
   0.0000001002    0.0000000000    0.0000001000
   0.0000000002    0.0000000000    0.0000000000
   0.0000000002    0.0000000000    0.0000000000
  -0.0000004098   -0.0000005100   -0.0000004100
  -0.0000051998    0.0004099900    0.0004047900
  -0.0000101098   -0.0000058100   -0.0000043000
  -0.0000001498   -0.0000000400   -0.0000000200
  -0.0000000798    0.0000000300    0.0000000400
  -0.0000023698    0.0000019300    0.0000034100
   0.0000002002   -0.0000004700    0.0000000400
  -0.0000001298   -0.0000002700   -0.0000000400
   0.0000000002    0.0000000000    0.0000000000
   0.0000000002    0.0000000000    0.0000000000
  -0.0000000098    0.0000000900    0.0000000800
   0.0000000002    0.0000000000    0.0000000000
   0.0000000002    0.0000000000    0.0000000000
   0.0000000002    0.0000000000    0.0000000000
   0.0000000002    0.0000000000    0.0000000000
   0.0000000002    0.0000000000    0.0000000000
   0.0000002002    0.0000004700    0.0000000400
  -0.0000001298    0.0000002700   -0.0000000400
   0.0000000002    0.0000000000    0.0000000000
   0.0000000002    0.0000000000    0.0000000000
  -0.0000000098   -0.0000000900    0.0000000800
  -0.0000051998   -0.0004099900    0.0004047900
  -0.0000101098    0.0000058100   -0.0000043000
  -0.0000001498    0.0000000400   -0.0000000200
  -0.0000000798   -0.0000000300    0.0000000400
  -0.0000023698   -0.0000019300    0.0000034100
   0.0000002002   -0.0000004800   -0.0000012300
  -0.0000002498   -0.0000001500   -0.0000003900
   0.0000000002    0.0000000000    0.0000000000
   0.0000000002    0.0000000000    0.0000000000
   0.0000001102   -0.0000000300   -0.0000000400
   0.0000000202   -0.0000000800   -0.0000000600
  -0.0000000198   -0.0000000500   -0.0000000400
   0.0000000002    0.0000000000    0.0000000000
   0.0000000002    0.0000000000    0.0000000000
   0.0000000102   -0.0000000100    0.0000000000
   0.0000000002    0.0000000000    0.0000000000
   0.0000000002    0.0000000000    0.0000000000
   0.0000000002    0.0000000000    0.0000000000
   0.0000000002    0.0000000000    0.0000000000
   0.0000000002    0.0000000000    0.0000000000
   0.0000000202    0.0000000800   -0.0000000600
  -0.0000000198    0.0000000500   -0.0000000400
   0.0000000002    0.0000000000    0.0000000000
   0.0000000002    0.0000000000    0.0000000000
   0.0000000102    0.0000000100    0.0000000000
   0.0000002002    0.0000004800   -0.0000012300
  -0.0000002498    0.0000001500   -0.0000003900
   0.0000000002    0.0000000000    0.0000000000
   0.0000000002    0.0000000000    0.0000000000
   0.0000001102    0.0000000300   -0.0000000400
   0.0000000002    0.0000000000    0.0000000000
   0.0000000002    0.0000000000    0.0000000000
   0.0000000002    0.0000000000    0.0000000000
   0.0000000002    0.0000000000    0.0000000000
   0.0000000002    0.0000000000    0.0000000000
   0.0000000002    0.0000000000    0.0000000000
   0.0000000002    0.0000000000    0.0000000000
   0.0000000002    0.0000000000    0.0000000000
   0.0000000002    0.0000000000    0.0000000000
   0.0000000002    0.0000000000    0.0000000000
   0.0000000002    0.0000000000    0.0000000000
   0.0000000002    0.0000000000    0.0000000000
   0.0000000002    0.0000000000    0.0000000000
   0.0000000002    0.0000000000    0.0000000000
   0.0000000002    0.0000000000    0.0000000000
   0.0000000002    0.0000000000    0.0000000000
   0.0000000002    0.0000000000    0.0000000000
   0.0000000002    0.0000000000    0.0000000000
   0.0000000002    0.0000000000    0.0000000000
   0.0000000002    0.0000000000    0.0000000000
   0.0000000002    0.0000000000    0.0000000000
   0.0000000002    0.0000000000    0.0000000000
   0.0000000002    0.0000000000    0.0000000000
   0.0000000002    0.0000000000    0.0000000000
   0.0000000002    0.0000000000    0.0000000000
   0.0000002002    0.0000004700   -0.0000012200
   0.0000001102    0.0000000300   -0.0000000400
   0.0000000002    0.0000000000    0.0000000000
   0.0000000002    0.0000000000    0.0000000000
  -0.0000002398    0.0000001500   -0.0000003900
   0.0000000202    0.0000000800   -0.0000000600
   0.0000000102    0.0000000100    0.0000000000
   0.0000000002    0.0000000000    0.0000000000
   0.0000000002    0.0000000000    0.0000000000
  -0.0000000198    0.0000000500   -0.0000000400
   0.0000000002    0.0000000000    0.0000000000
   0.0000000002    0.0000000000    0.0000000000
   0.0000000002    0.0000000000    0.0000000000
   0.0000000002    0.0000000000    0.0000000000
   0.0000000002    0.0000000000    0.0000000000
   0.0000000202   -0.0000000800   -0.0000000600
   0.0000000102   -0.0000000100    0.0000000000
   0.0000000002    0.0000000000    0.0000000000
   0.0000000002    0.0000000000    0.0000000000
  -0.0000000198   -0.0000000500   -0.0000000400
   0.0000002002   -0.0000004700   -0.0000012200
   0.0000001102   -0.0000000300   -0.0000000400
   0.0000000002    0.0000000000    0.0000000000
   0.0000000002    0.0000000000    0.0000000000
  -0.0000002398   -0.0000001500   -0.0000003900
  -0.0000030698   -0.0003996500    0.0003965800
  -0.0000023498   -0.0000019200    0.0000034200
  -0.0000000798   -0.0000000300    0.0000000400
  -0.0000001498    0.0000000400   -0.0000000200
  -0.0000100098    0.0000057400   -0.0000042700
   0.0000002002    0.0000004700    0.0000000400
  -0.0000000098   -0.0000000900    0.0000000800
   0.0000000002    0.0000000000    0.0000000000
   0.0000000002    0.0000000000    0.0000000000
  -0.0000001298    0.0000002700   -0.0000000400
   0.0000000002    0.0000000000    0.0000000000
   0.0000000002    0.0000000000    0.0000000000
   0.0000000002    0.0000000000    0.0000000000
   0.0000000002    0.0000000000    0.0000000000
   0.0000000002    0.0000000000    0.0000000000
   0.0000002002   -0.0000004700    0.0000000400
  -0.0000000098    0.0000000900    0.0000000800
   0.0000000002    0.0000000000    0.0000000000
   0.0000000002    0.0000000000    0.0000000000
  -0.0000001298   -0.0000002700   -0.0000000400
  -0.0000030698    0.0003996500    0.0003965800
  -0.0000023498    0.0000019200    0.0000034200
  -0.0000000798    0.0000000300    0.0000000400
  -0.0000001498   -0.0000000400   -0.0000000200
  -0.0000100098   -0.0000057400   -0.0000042700
   0.0008275602    0.0000000000    0.0008275600
  -0.0000017098   -0.0000000000   -0.0000004300
   0.0000000002    0.0000000000    0.0000000000
  -0.0000007498    0.0000000000    0.0000005100
  -0.0000030598   -0.0000000000   -0.0000051900
  -0.0000023598   -0.0000077200   -0.0000023600
  -0.0000002998   -0.0000002400   -0.0000000700
   0.0000000002    0.0000000000    0.0000000000
  -0.0000001298    0.0000001200    0.0000001100
   0.0000014802    0.0000000100    0.0000014900
   0.0000000002   -0.0000000700    0.0000000000
   0.0000000002    0.0000000000    0.0000000000
   0.0000000002    0.0000000000    0.0000000000
   0.0000000002    0.0000000000    0.0000000000
   0.0000000202    0.0000000000    0.0000000200
   0.0000000002    0.0000000700    0.0000000000
   0.0000000002    0.0000000000    0.0000000000
   0.0000000002    0.0000000000    0.0000000000
   0.0000000002    0.0000000000    0.0000000000
   0.0000000202    0.0000000000    0.0000000200
  -0.0000023598    0.0000077200   -0.0000023600
  -0.0000002998    0.0000002400   -0.0000000700
   0.0000000002    0.0000000000    0.0000000000
  -0.0000001298   -0.0000001200    0.0000001100
   0.0000014802   -0.0000000100    0.0000014900
  -0.0000004298    0.0000000000   -0.0000017100
  -0.0000001298    0.0000000000   -0.0000001300
   0.0000000002    0.0000000000    0.0000000000
   0.0000000202    0.0000000000    0.0000000200
   0.0000005202    0.0000000000   -0.0000007500
  -0.0000000698   -0.0000002400   -0.0000003000
  -0.0000000498   -0.0000000400   -0.0000000500
   0.0000000002    0.0000000000    0.0000000000
   0.0000000102    0.0000000000    0.0000000100
   0.0000001102   -0.0000001200   -0.0000001300
   0.0000000002    0.0000000000    0.0000000000
   0.0000000002    0.0000000000    0.0000000000
   0.0000000002    0.0000000000    0.0000000000
   0.0000000002    0.0000000000    0.0000000000
   0.0000000002    0.0000000000    0.0000000000
   0.0000000002    0.0000000000    0.0000000000
   0.0000000002    0.0000000000    0.0000000000
   0.0000000002    0.0000000000    0.0000000000
   0.0000000002    0.0000000000    0.0000000000
   0.0000000002    0.0000000000    0.0000000000
  -0.0000000698    0.0000002400   -0.0000003000
  -0.0000000498    0.0000000400   -0.0000000500
   0.0000000002    0.0000000000    0.0000000000
   0.0000000102    0.0000000000    0.0000000100
   0.0000001102    0.0000001200   -0.0000001300
   0.0000000002    0.0000000000    0.0000000000
   0.0000000002    0.0000000000    0.0000000000
   0.0000000002    0.0000000000    0.0000000000
   0.0000000002    0.0000000000    0.0000000000
   0.0000000002    0.0000000000    0.0000000000
   0.0000000002    0.0000000000    0.0000000000
   0.0000000002    0.0000000000    0.0000000000
   0.0000000002    0.0000000000    0.0000000000
   0.0000000002    0.0000000000    0.0000000000
   0.0000000002    0.0000000000    0.0000000000
   0.0000000002    0.0000000000    0.0000000000
   0.0000000002    0.0000000000    0.0000000000
   0.0000000002    0.0000000000    0.0000000000
   0.0000000002    0.0000000000    0.0000000000
   0.0000000002    0.0000000000    0.0000000000
   0.0000000002    0.0000000000    0.0000000000
   0.0000000002    0.0000000000    0.0000000000
   0.0000000002    0.0000000000    0.0000000000
   0.0000000002    0.0000000000    0.0000000000
   0.0000000002    0.0000000000    0.0000000000
   0.0000000002    0.0000000000    0.0000000000
   0.0000000002    0.0000000000    0.0000000000
   0.0000000002    0.0000000000    0.0000000000
   0.0000000002    0.0000000000    0.0000000000
   0.0000000002    0.0000000000    0.0000000000
   0.0000005102    0.0000000000   -0.0000007500
   0.0000000202    0.0000000000    0.0000000200
   0.0000000002    0.0000000000    0.0000000000
  -0.0000001298    0.0000000000   -0.0000001300
  -0.0000004298    0.0000000000   -0.0000016900
   0.0000001102    0.0000001200   -0.0000001300
   0.0000000102    0.0000000000    0.0000000100
   0.0000000002    0.0000000000    0.0000000000
  -0.0000000498    0.0000000400   -0.0000000500
  -0.0000000698    0.0000002400   -0.0000003000
   0.0000000002    0.0000000000    0.0000000000
   0.0000000002    0.0000000000    0.0000000000
   0.0000000002    0.0000000000    0.0000000000
   0.0000000002    0.0000000000    0.0000000000
   0.0000000002    0.0000000000    0.0000000000
   0.0000000002    0.0000000000    0.0000000000
   0.0000000002    0.0000000000    0.0000000000
   0.0000000002    0.0000000000    0.0000000000
   0.0000000002    0.0000000000    0.0000000000
   0.0000000002    0.0000000000    0.0000000000
   0.0000001102   -0.0000001200   -0.0000001300
   0.0000000102    0.0000000000    0.0000000100
   0.0000000002    0.0000000000    0.0000000000
  -0.0000000498   -0.0000000400   -0.0000000500
  -0.0000000698   -0.0000002400   -0.0000003000
  -0.0000051898   -0.0000000000   -0.0000030600
  -0.0000007498    0.0000000000    0.0000005200
   0.0000000002    0.0000000000    0.0000000000
  -0.0000016898   -0.0000000000   -0.0000004300
   0.0007840502    0.0000000000    0.0007840500
   0.0000014902    0.0000000100    0.0000014800
  -0.0000001298   -0.0000001200    0.0000001100
   0.0000000002    0.0000000000    0.0000000000
  -0.0000002998    0.0000002400   -0.0000000700
  -0.0000023598    0.0000076800   -0.0000023600
   0.0000000202    0.0000000000    0.0000000200
   0.0000000002    0.0000000000    0.0000000000
   0.0000000002    0.0000000000    0.0000000000
   0.0000000002    0.0000000000    0.0000000000
   0.0000000002    0.0000000700    0.0000000000
   0.0000000202    0.0000000000    0.0000000200
   0.0000000002    0.0000000000    0.0000000000
   0.0000000002    0.0000000000    0.0000000000
   0.0000000002    0.0000000000    0.0000000000
   0.0000000002   -0.0000000700    0.0000000000
   0.0000014902   -0.0000000100    0.0000014800
  -0.0000001298    0.0000001200    0.0000001100
   0.0000000002    0.0000000000    0.0000000000
  -0.0000002998   -0.0000002400   -0.0000000700
  -0.0000023598   -0.0000076800   -0.0000023600
   0.0002024002    0.0002050000   -0.0000026000
  -0.0000006098   -0.0000002400    0.0000001000
   0.0000000002    0.0000000000    0.0000000000
  -0.0000006098    0.0000002400    0.0000001000
   0.0001982902   -0.0001998300   -0.0000015400
   0.0000000202   -0.0000002400    0.0000001000
  -0.0000000298   -0.0000000400    0.0000000100
   0.0000000002    0.0000000000    0.0000000000
  -0.0000000298    0.0000000400    0.0000000100
   0.0000000202    0.0000002400    0.0000001000
   0.0000000002    0.0000000000    0.0000000000
   0.0000000002    0.0000000000    0.0000000000
   0.0000000002    0.0000000000    0.0000000000
   0.0000000002    0.0000000000    0.0000000000
   0.0000000002    0.0000000000    0.0000000000
   0.0000000202    0.0000002400    0.0000001000
  -0.0000000298    0.0000000400    0.0000000100
   0.0000000002    0.0000000000    0.0000000000
  -0.0000000298   -0.0000000400    0.0000000100
   0.0000000202   -0.0000002400    0.0000001000
   0.0002024002   -0.0002050000   -0.0000026000
  -0.0000006098    0.0000002400    0.0000001000
   0.0000000002    0.0000000000    0.0000000000
  -0.0000006098   -0.0000002400    0.0000001000
   0.0001982902    0.0001998300   -0.0000015400
  -0.0000021498   -0.0000029000   -0.0000050500
  -0.0000001998   -0.0000000700   -0.0000001200
   0.0000000002    0.0000000000    0.0000000000
  -0.0000000198    0.0000000100    0.0000000600
   0.0000017102   -0.0000009600   -0.0000011800
  -0.0000000198   -0.0000001300   -0.0000000600
  -0.0000000198   -0.0000000200   -0.0000000100
   0.0000000002    0.0000000000    0.0000000000
   0.0000000002    0.0000000000    0.0000000100
   0.0000000402   -0.0000000400    0.0000000000
   0.0000000002    0.0000000000    0.0000000000
   0.0000000002    0.0000000000    0.0000000000
   0.0000000002    0.0000000000    0.0000000000
   0.0000000002    0.0000000000    0.0000000000
   0.0000000002    0.0000000000    0.0000000000
  -0.0000000198    0.0000001300   -0.0000000600
  -0.0000000198    0.0000000200   -0.0000000100
   0.0000000002    0.0000000000    0.0000000000
   0.0000000002    0.0000000000    0.0000000100
   0.0000000402    0.0000000400    0.0000000000
  -0.0000021498    0.0000029000   -0.0000050500
  -0.0000001998    0.0000000700   -0.0000001200
   0.0000000002    0.0000000000    0.0000000000
  -0.0000000198   -0.0000000100    0.0000000600
   0.0000017102    0.0000009600   -0.0000011800
  -0.0000000098   -0.0000000200   -0.0000000800
   0.0000000002    0.0000000000    0.0000000000
   0.0000000002    0.0000000000    0.0000000000
   0.0000000002    0.0000000000    0.0000000000
   0.0000000202   -0.0000000100   -0.0000000400
   0.0000000002    0.0000000000    0.0000000000
   0.0000000002    0.0000000000    0.0000000000
   0.0000000002    0.0000000000    0.0000000000
   0.0000000002    0.0000000000    0.0000000000
   0.0000000002    0.0000000000    0.0000000000
   0.0000000002    0.0000000000    0.0000000000
   0.0000000002    0.0000000000    0.0000000000
   0.0000000002    0.0000000000    0.0000000000
   0.0000000002    0.0000000000    0.0000000000
   0.0000000002    0.0000000000    0.0000000000
   0.0000000002    0.0000000000    0.0000000000
   0.0000000002    0.0000000000    0.0000000000
   0.0000000002    0.0000000000    0.0000000000
   0.0000000002    0.0000000000    0.0000000000
   0.0000000002    0.0000000000    0.0000000000
  -0.0000000098    0.0000000200   -0.0000000800
   0.0000000002    0.0000000000    0.0000000000
   0.0000000002    0.0000000000    0.0000000000
   0.0000000002    0.0000000000    0.0000000000
   0.0000000202    0.0000000100   -0.0000000400
   0.0000000202    0.0000000100   -0.0000000400
   0.0000000002    0.0000000000    0.0000000000
   0.0000000002    0.0000000000    0.0000000000
   0.0000000002    0.0000000000    0.0000000000
  -0.0000000098    0.0000000200   -0.0000000700
   0.0000000002    0.0000000000    0.0000000000
   0.0000000002    0.0000000000    0.0000000000
   0.0000000002    0.0000000000    0.0000000000
   0.0000000002    0.0000000000    0.0000000000
   0.0000000002    0.0000000000    0.0000000000
   0.0000000002    0.0000000000    0.0000000000
   0.0000000002    0.0000000000    0.0000000000
   0.0000000002    0.0000000000    0.0000000000
   0.0000000002    0.0000000000    0.0000000000
   0.0000000002    0.0000000000    0.0000000000
   0.0000000002    0.0000000000    0.0000000000
   0.0000000002    0.0000000000    0.0000000000
   0.0000000002    0.0000000000    0.0000000000
   0.0000000002    0.0000000000    0.0000000000
   0.0000000002    0.0000000000    0.0000000000
   0.0000000202   -0.0000000100   -0.0000000400
   0.0000000002    0.0000000000    0.0000000000
   0.0000000002    0.0000000000    0.0000000000
   0.0000000002    0.0000000000    0.0000000000
  -0.0000000098   -0.0000000200   -0.0000000700
   0.0000017002    0.0000009600   -0.0000011800
  -0.0000000198   -0.0000000100    0.0000000600
   0.0000000002    0.0000000000    0.0000000000
  -0.0000001998    0.0000000700   -0.0000001200
  -0.0000021298    0.0000028700   -0.0000050100
   0.0000000402    0.0000000400    0.0000000000
   0.0000000002    0.0000000000    0.0000000100
   0.0000000002    0.0000000000    0.0000000000
  -0.0000000198    0.0000000200   -0.0000000100
  -0.0000000198    0.0000001300   -0.0000000600
   0.0000000002    0.0000000000    0.0000000000
   0.0000000002    0.0000000000    0.0000000000
   0.0000000002    0.0000000000    0.0000000000
   0.0000000002    0.0000000000    0.0000000000
   0.0000000002    0.0000000000    0.0000000000
   0.0000000402   -0.0000000400    0.0000000000
   0.0000000002    0.0000000000    0.0000000100
   0.0000000002    0.0000000000    0.0000000000
  -0.0000000198   -0.0000000200   -0.0000000100
  -0.0000000198   -0.0000001300   -0.0000000600
   0.0000017002   -0.0000009600   -0.0000011800
  -0.0000000198    0.0000000100    0.0000000600
   0.0000000002    0.0000000000    0.0000000000
  -0.0000001998   -0.0000000700   -0.0000001200
  -0.0000021298   -0.0000028700   -0.0000050100

376  
  0.0100000000000000   0.0000000000000000   0.0000000000000000
   0.0002090396    0.0002104400    0.0000000000
   0.0002159996   -0.0002190000   -0.0000000000
  -0.0000006504    0.0000002500   -0.0000000000
  -0.0000000004   -0.0000000000   -0.0000000000
  -0.0000006504   -0.0000002500   -0.0000000000
   0.0002090396   -0.0002104400   -0.0000000000
   0.0002159996    0.0002190000    0.0000000000
  -0.0000006504   -0.0000002500   -0.0000000000
  -0.0000000004   -0.0000000000   -0.0000000000
  -0.0000006504    0.0000002500   -0.0000000000
   0.0000000196    0.0000002500    0.0000000000
   0.0000000196   -0.0000002500   -0.0000000000
  -0.0000000304   -0.0000000400   -0.0000000000
  -0.0000000004   -0.0000000000   -0.0000000000
  -0.0000000304    0.0000000400    0.0000000000
  -0.0000000004   -0.0000000000   -0.0000000000
  -0.0000000004   -0.0000000000   -0.0000000000
  -0.0000000004   -0.0000000000   -0.0000000000
  -0.0000000004   -0.0000000000   -0.0000000000
  -0.0000000004   -0.0000000000   -0.0000000000
   0.0000000196   -0.0000002500   -0.0000000000
   0.0000000196    0.0000002500    0.0000000000
  -0.0000000304    0.0000000400    0.0000000000
  -0.0000000004   -0.0000000000   -0.0000000000
  -0.0000000304   -0.0000000400   -0.0000000000
  -0.0000002304   -0.0000010200    0.0000020400
  -0.0000002304    0.0000010200   -0.0000020400
  -0.0000001104    0.0000000500   -0.0000000900
  -0.0000000004   -0.0000000000   -0.0000000000
  -0.0000001104   -0.0000000500    0.0000000900
  -0.0000002304    0.0000010200    0.0000020400
  -0.0000002304   -0.0000010200   -0.0000020400
  -0.0000001104   -0.0000000500   -0.0000000900
  -0.0000000004   -0.0000000000   -0.0000000000
  -0.0000001104    0.0000000500    0.0000000900
   0.0000000096    0.0000000500    0.0000000300
   0.0000000096   -0.0000000500   -0.0000000300
  -0.0000000104   -0.0000000100   -0.0000000100
  -0.0000000004   -0.0000000000   -0.0000000000
  -0.0000000104    0.0000000100    0.0000000100
  -0.0000000004   -0.0000000000   -0.0000000000
  -0.0000000004   -0.0000000000   -0.0000000000
  -0.0000000004   -0.0000000000   -0.0000000000
  -0.0000000004   -0.0000000000   -0.0000000000
  -0.0000000004   -0.0000000000   -0.0000000000
   0.0000000096   -0.0000000500    0.0000000300
   0.0000000096    0.0000000500   -0.0000000300
  -0.0000000104    0.0000000100   -0.0000000100
  -0.0000000004   -0.0000000000   -0.0000000000
  -0.0000000104   -0.0000000100    0.0000000100
   0.0000000096    0.0000000000    0.0000000200
   0.0000000096    0.0000000000   -0.0000000200
  -0.0000000004   -0.0000000000   -0.0000000000
  -0.0000000004   -0.0000000000   -0.0000000000
  -0.0000000004   -0.0000000000   -0.0000000000
   0.0000000096    0.0000000000    0.0000000200
   0.0000000096    0.0000000000   -0.0000000200
  -0.0000000004   -0.0000000000   -0.0000000000
  -0.0000000004   -0.0000000000   -0.0000000000
  -0.0000000004   -0.0000000000   -0.0000000000
  -0.0000000004   -0.0000000000   -0.0000000000
  -0.0000000004   -0.0000000000   -0.0000000000
  -0.0000000004   -0.0000000000   -0.0000000000
  -0.0000000004   -0.0000000000   -0.0000000000
  -0.0000000004   -0.0000000000   -0.0000000000
  -0.0000000004   -0.0000000000   -0.0000000000
  -0.0000000004   -0.0000000000   -0.0000000000
  -0.0000000004   -0.0000000000   -0.0000000000
  -0.0000000004   -0.0000000000   -0.0000000000
  -0.0000000004   -0.0000000000   -0.0000000000
  -0.0000000004   -0.0000000000   -0.0000000000
  -0.0000000004   -0.0000000000   -0.0000000000
  -0.0000000004   -0.0000000000   -0.0000000000
  -0.0000000004   -0.0000000000   -0.0000000000
  -0.0000000004   -0.0000000000   -0.0000000000
   0.0000000096    0.0000000000   -0.0000000200
   0.0000000096    0.0000000000    0.0000000200
  -0.0000000004   -0.0000000000   -0.0000000000
  -0.0000000004   -0.0000000000   -0.0000000000
  -0.0000000004   -0.0000000000   -0.0000000000
   0.0000000096    0.0000000000   -0.0000000200
   0.0000000096    0.0000000000    0.0000000200
  -0.0000000004   -0.0000000000   -0.0000000000
  -0.0000000004   -0.0000000000   -0.0000000000
  -0.0000000004   -0.0000000000   -0.0000000000
  -0.0000000004   -0.0000000000   -0.0000000000
  -0.0000000004   -0.0000000000   -0.0000000000
  -0.0000000004   -0.0000000000   -0.0000000000
  -0.0000000004   -0.0000000000   -0.0000000000
  -0.0000000004   -0.0000000000   -0.0000000000
  -0.0000000004   -0.0000000000   -0.0000000000
  -0.0000000004   -0.0000000000   -0.0000000000
  -0.0000000004   -0.0000000000   -0.0000000000
  -0.0000000004   -0.0000000000   -0.0000000000
  -0.0000000004   -0.0000000000   -0.0000000000
  -0.0000000004   -0.0000000000   -0.0000000000
  -0.0000000004   -0.0000000000   -0.0000000000
  -0.0000000004   -0.0000000000   -0.0000000000
  -0.0000000004   -0.0000000000   -0.0000000000
  -0.0000000004   -0.0000000000   -0.0000000000
  -0.0000002304   -0.0000010200   -0.0000020400
  -0.0000002304    0.0000010200    0.0000020400
  -0.0000001104    0.0000000500    0.0000000900
  -0.0000000004   -0.0000000000   -0.0000000000
  -0.0000001104   -0.0000000500   -0.0000000900
  -0.0000002304    0.0000010200   -0.0000020400
  -0.0000002304   -0.0000010200    0.0000020400
  -0.0000001104   -0.0000000500    0.0000000900