ITEM: TIMESTEP
0
ITEM: NUMBER OF ATOMS
500
ITEM: BOX BOUNDS xy xz yz pp pp pp
0.0000000000000000e+00 2.6880000000000003e+01 1.6459252980540428e-15
0.0000000000000000e+00 2.6880000000000006e+01 1.6459252980540428e-15
0.0000000000000000e+00 2.6880000000000003e+01 2.9842794901924211e-15
ITEM: ATOMS id type x y z fx fy fz
1 1      0.00707107      0.00000000      0.00707107     -0.00225544      0.00000000     -0.00308507
2 1      5.37600000      0.00000000      0.00000000     -0.00004181      0.00000000      0.00000688
6 1      0.00000000      5.37600000      0.00000000      0.00000682      0.00000006      0.00000682
7 1      5.37600000      5.37600000      0.00000000     -0.00000142     -0.00000191      0.00000048
26 1      0.00000000      0.00000000      5.37600000      0.00000688      0.00000000     -0.00004181
27 1      5.37600000      0.00000000      5.37600000     -0.00000334      0.00000000     -0.00000334
31 1      0.00000000      5.37600000      5.37600000      0.00000048     -0.00000191     -0.00000142
32 1      5.37600000      5.37600000      5.37600000     -0.00000042     -0.00000051     -0.00000042
126 1      0.00000000      2.68800000      2.68800000     -0.00000520      0.00040999      0.00040479
127 1      5.37600000      2.68800000      2.68800000     -0.00001011     -0.00000581     -0.00000430
131 1      0.00000000      8.06400000      2.68800000      0.00000020     -0.00000047      0.00000004
132 1      5.37600000      8.06400000      2.68800000     -0.00000013     -0.00000027     -0.00000004
151 1      0.00000000      2.68800000      8.06400000      0.00000020     -0.00000048     -0.00000123
152 1      5.37600000      2.68800000      8.06400000     -0.00000025     -0.00000015     -0.00000039
156 1      0.00000000      8.06400000      8.06400000      0.00000002     -0.00000008     -0.00000006
157 1      5.37600000      8.06400000      8.06400000     -0.00000002     -0.00000005     -0.00000004
251 1      2.68800000      0.00000000      2.68800000      0.00082756      0.00000000      0.00082756
252 1      8.06400000      0.00000000      2.68800000     -0.00000171      0.00000000     -0.00000043
256 1      2.68800000      5.37600000      2.68800000     -0.00000236     -0.00000772     -0.00000236
257 1      8.06400000      5.37600000      2.68800000     -0.00000030     -0.00000024     -0.00000007
276 1      2.68800000      0.00000000      8.06400000     -0.00000043      0.00000000     -0.00000171
277 1      8.06400000      0.00000000      8.06400000     -0.00000013      0.00000000     -0.00000013
281 1      2.68800000      5.37600000      8.06400000     -0.00000007     -0.00000024     -0.00000030
282 1      8.06400000      5.37600000      8.06400000     -0.00000005     -0.00000004     -0.00000005
376 2      2.68800000      2.68800000      0.00000000      0.00020240      0.00020500     -0.00000260
377 2      8.06400000      2.68800000      0.00000000     -0.00000061     -0.00000024      0.00000010
381 2      2.68800000      8.06400000      0.00000000      0.00000002     -0.00000024      0.00000010
382 2      8.06400000      8.06400000      0.00000000     -0.00000003     -0.00000004      0.00000001
401 2      2.68800000      2.68800000      5.37600000     -0.00000215     -0.00000290     -0.00000505
402 2      8.06400000      2.68800000      5.37600000     -0.00000020     -0.00000007     -0.00000012
406 2      2.68800000      8.06400000      5.37600000     -0.00000002     -0.00000013     -0.00000006
407 2      8.06400000      8.06400000      5.37600000     -0.00000002     -0.00000002     -0.00000001
3 1     10.75200000      0.00000000      0.00000000     -0.00000021      0.00000000      0.00000003
4 1     16.12800000      0.00000000      0.00000000     -0.00000021      0.00000000      0.00000003
8 1     10.75200000      5.37600000      0.00000000     -0.00000007     -0.00000004      0.00000001
9 1     16.12800000      5.37600000      0.00000000     -0.00000007      0.00000004      0.00000001
28 1     10.75200000      0.00000000      5.37600000     -0.00000011      0.00000000     -0.00000005
29 1     16.12800000      0.00000000      5.37600000     -0.00000003      0.00000000      0.00000003
33 1     10.75200000      5.37600000      5.37600000     -0.00000000      0.00000000      0.00000000
34 1     16.12800000      5.37600000      5.37600000     -0.00000000      0.00000000      0.00000000
128 1     10.75200000      2.68800000      2.68800000     -0.00000015     -0.00000004     -0.00000002
129 1     16.12800000      2.68800000      2.68800000     -0.00000008      0.00000003      0.00000004
133 1     10.75200000      8.06400000      2.68800000     -0.00000000      0.00000000     -0.00000000
134 1     16.12800000      8.06400000      2.68800000     -0.00000000      0.00000000     -0.00000000
153 1     10.75200000      2.68800000      8.06400000     -0.00000000     -0.00000000     -0.00000000
154 1     16.12800000      2.68800000      8.06400000     -0.00000000     -0.00000000     -0.00000000
158 1     10.75200000      8.06400000      8.06400000     -0.00000000     -0.00000000      0.00000000
159 1     16.12800000      8.06400000      8.06400000     -0.00000000     -0.00000000      0.00000000
253 1     13.44000000      0.00000000      2.68800000      0.00000000      0.00000000     -0.00000000
258 1     13.44000000      5.37600000      2.68800000      0.00000000      0.00000000     -0.00000000
278 1     13.44000000      0.00000000      8.06400000      0.00000000      0.00000000      0.00000000
283 1     13.44000000      5.37600000      8.06400000      0.00000000      0.00000000      0.00000000
378 2     13.44000000      2.68800000      0.00000000      0.00000000     -0.00000000      0.00000000
383 2     13.44000000      8.06400000      0.00000000      0.00000000      0.00000000      0.00000000
403 2     13.44000000      2.68800000      5.37600000      0.00000000      0.00000000      0.00000000
408 2     13.44000000      8.06400000      5.37600000      0.00000000      0.00000000      0.00000000
5 1     21.50400000      0.00000000      0.00000000     -0.00004154      0.00000000      0.00000676
10 1     21.50400000      5.37600000      0.00000000     -0.00000142      0.00000190      0.00000048
30 1     21.50400000      0.00000000      5.37600000      0.00000048      0.00000000      0.00000048
35 1     21.50400000      5.37600000      5.37600000      0.00000010      0.00000000      0.00000010
130 1     21.50400000      2.68800000      2.68800000     -0.00000237      0.00000193      0.00000341
135 1     21.50400000      8.06400000      2.68800000     -0.00000001      0.00000009      0.00000008
155 1     21.50400000      2.68800000      8.06400000      0.00000011     -0.00000003     -0.00000004
160 1     21.50400000      8.06400000      8.06400000      0.00000001     -0.00000001     -0.00000000
254 1     18.81600000      0.00000000      2.68800000     -0.00000075      0.00000000      0.00000051
255 1     24.19200000      0.00000000      2.68800000     -0.00000306      0.00000000     -0.00000519
259 1     18.81600000      5.37600000      2.68800000     -0.00000013      0.00000012      0.00000011
260 1     24.19200000      5.37600000      2.68800000      0.00000148      0.00000001      0.00000149
279 1     18.81600000      0.00000000      8.06400000      0.00000002      0.00000000      0.00000002
280 1     24.19200000      0.00000000      8.06400000      0.00000052      0.00000000     -0.00000075
284 1     18.81600000      5.37600000      8.06400000      0.00000001      0.00000000      0.00000001
285 1     24.19200000      5.37600000      8.06400000      0.00000011     -0.00000012     -0.00000013
379 2     18.81600000      2.68800000      0.00000000     -0.00000061      0.00000024      0.00000010
380 2     24.19200000      2.68800000      0.00000000      0.00019829     -0.00019983     -0.00000154
384 2     18.81600000      8.06400000      0.00000000     -0.00000003      0.00000004      0.00000001
385 2     24.19200000      8.06400000      0.00000000      0.00000002      0.00000024      0.00000010
404 2     18.81600000      2.68800000      5.37600000     -0.00000002      0.00000001      0.00000006
405 2     24.19200000      2.68800000      5.37600000      0.00000171     -0.00000096     -0.00000118
409 2     18.81600000      8.06400000      5.37600000     -0.00000000      0.00000000      0.00000001
410 2     24.19200000      8.06400000      5.37600000      0.00000004     -0.00000004     -0.00000000
11 1      0.00000000     10.75200000      0.00000000      0.00000003      0.00000000      0.00000003
12 1      5.37600000     10.75200000      0.00000000     -0.00000001     -0.00000004      0.00000001
16 1      0.00000000     16.12800000      0.00000000      0.00000003     -0.00000000      0.00000003
17 1      5.37600000     16.12800000      0.00000000     -0.00000001      0.00000004      0.00000001
36 1      0.00000000     10.75200000      5.37600000      0.00000001     -0.00000004     -0.00000001
37 1      5.37600000     10.75200000      5.37600000     -0.00000000      0.00000000      0.00000000
41 1      0.00000000     16.12800000      5.37600000      0.00000001      0.00000004     -0.00000001
42 1      5.37600000     16.12800000      5.37600000      0.00000000      0.00000000     -0.00000000
136 1      0.00000000     13.44000000      2.68800000      0.00000000      0.00000000      0.00000000
137 1      5.37600000     13.44000000      2.68800000      0.00000000      0.00000000     -0.00000000
161 1      0.00000000     13.44000000      8.06400000      0.00000000     -0.00000000     -0.00000000
162 1      5.37600000     13.44000000      8.06400000     -0.00000000     -0.00000000     -0.00000000
261 1      2.68800000     10.75200000      2.68800000      0.00000000     -0.00000007      0.00000000
262 1      8.06400000     10.75200000      2.68800000      0.00000000     -0.00000000     -0.00000000
266 1      2.68800000     16.12800000      2.68800000      0.00000000      0.00000007      0.00000000
267 1      8.06400000     16.12800000      2.68800000     -0.00000000     -0.00000000     -0.00000000
286 1      2.68800000     10.75200000      8.06400000      0.00000000      0.00000000      0.00000000
287 1      8.06400000     10.75200000      8.06400000      0.00000000      0.00000000     -0.00000000
291 1      2.68800000     16.12800000      8.06400000      0.00000000      0.00000000     -0.00000000
292 1      8.06400000     16.12800000      8.06400000     -0.00000000      0.00000000     -0.00000000
386 2      2.68800000     13.44000000      0.00000000     -0.00000000      0.00000000      0.00000000
387 2      8.06400000     13.44000000      0.00000000      0.00000000      0.00000000      0.00000000
411 2      2.68800000     13.44000000      5.37600000     -0.00000000      0.00000000      0.00000000
412 2      8.06400000     13.44000000      5.37600000      0.00000000      0.00000000     -0.00000000
13 1     10.75200000     10.75200000      0.00000000      0.00000000      0.00000000      0.00000000
14 1     16.12800000     10.75200000      0.00000000     -0.00000000      0.00000000      0.00000000
18 1     10.75200000     16.12800000      0.00000000      0.00000000     -0.00000000      0.00000000
19 1     16.12800000     16.12800000      0.00000000      0.00000000     -0.00000000      0.00000000
38 1     10.75200000     10.75200000      5.37600000     -0.00000000      0.00000000      0.00000000
39 1     16.12800000     10.75200000      5.37600000     -0.00000000      0.00000000      0.00000000
43 1     10.75200000     16.12800000      5.37600000      0.00000000      0.00000000     -0.00000000
44 1     16.12800000     16.12800000      5.37600000      0.00000000     -0.00000000     -0.00000000
138 1     10.75200000     13.44000000      2.68800000      0.00000000      0.00000000     -0.00000000
139 1     16.12800000     13.44000000      2.68800000     -0.00000000      0.00000000     -0.00000000
163 1     10.75200000     13.44000000      8.06400000      0.00000000     -0.00000000     -0.00000000
164 1     16.12800000     13.44000000      8.06400000     -0.00000000     -0.00000000     -0.00000000
263 1     13.44000000     10.75200000      2.68800000      0.00000000     -0.00000000     -0.00000000
268 1     13.44000000     16.12800000      2.68800000     -0.00000000     -0.00000000     -0.00000000
288 1     13.44000000     10.75200000      8.06400000      0.00000000      0.00000000      0.00000000
293 1     13.44000000     16.12800000      8.06400000     -0.00000000      0.00000000     -0.00000000
388 2     13.44000000     13.44000000      0.00000000      0.00000000      0.00000000      0.00000000
413 2     13.44000000     13.44000000      5.37600000      0.00000000      0.00000000     -0.00000000
15 1     21.50400000     10.75200000      0.00000000     -0.00000001      0.00000004      0.00000001
20 1     21.50400000     16.12800000      0.00000000     -0.00000001     -0.00000004      0.00000001
40 1     21.50400000     10.75200000      5.37600000      0.00000000      0.00000000      0.00000000
45 1     21.50400000     16.12800000      5.37600000      0.00000000     -0.00000000     -0.00000000
140 1     21.50400000     13.44000000      2.68800000      0.00000000      0.00000000     -0.00000000
165 1     21.50400000     13.44000000      8.06400000      0.00000000     -0.00000000     -0.00000000
264 1     18.81600000     10.75200000      2.68800000      0.00000000     -0.00000000     -0.00000000
265 1     24.19200000     10.75200000      2.68800000      0.00000002      0.00000000      0.00000002
269 1     18.81600000     16.12800000      2.68800000      0.00000000     -0.00000000     -0.00000000
270 1     24.19200000     16.12800000      2.68800000      0.00000002     -0.00000000      0.00000002
289 1     18.81600000     10.75200000      8.06400000      0.00000000      0.00000000      0.00000000
290 1     24.19200000     10.75200000      8.06400000     -0.00000000      0.00000000      0.00000000
294 1     18.81600000     16.12800000      8.06400000      0.00000000      0.00000000     -0.00000000
295 1     24.19200000     16.12800000      8.06400000     -0.00000000      0.00000000     -0.00000000
389 2     18.81600000     13.44000000      0.00000000      0.00000000      0.00000000      0.00000000
390 2     24.19200000     13.44000000      0.00000000     -0.00000000      0.00000000      0.00000000
414 2     18.81600000     13.44000000      5.37600000      0.00000000      0.00000000     -0.00000000
415 2     24.19200000     13.44000000      5.37600000     -0.00000000      0.00000000     -0.00000000
21 1      0.00000000     21.50400000      0.00000000      0.00000682     -0.00000006      0.00000682
22 1      5.37600000     21.50400000      0.00000000     -0.00000142      0.00000191      0.00000048
46 1      0.00000000     21.50400000      5.37600000      0.00000048      0.00000191     -0.00000142
47 1      5.37600000     21.50400000      5.37600000     -0.00000042      0.00000051     -0.00000042
141 1      0.00000000     18.81600000      2.68800000      0.00000020      0.00000047      0.00000004
142 1      5.37600000     18.81600000      2.68800000     -0.00000013      0.00000027     -0.00000004
146 1      0.00000000     24.19200000      2.68800000     -0.00000520     -0.00040999      0.00040479
147 1      5.37600000     24.19200000      2.68800000     -0.00001011      0.00000581     -0.00000430
166 1      0.00000000     18.81600000      8.06400000      0.00000002      0.00000008     -0.00000006
167 1      5.37600000     18.81600000      8.06400000     -0.00000002      0.00000005     -0.00000004
171 1      0.00000000     24.19200000      8.06400000      0.00000020      0.00000048     -0.00000123
172 1      5.37600000     24.19200000      8.06400000     -0.00000025      0.00000015     -0.00000039
271 1      2.68800000     21.50400000      2.68800000     -0.00000236      0.00000772     -0.00000236
272 1      8.06400000     21.50400000      2.68800000     -0.00000030      0.00000024     -0.00000007
296 1      2.68800000     21.50400000      8.06400000     -0.00000007      0.00000024     -0.00000030
297 1      8.06400000     21.50400000      8.06400000     -0.00000005      0.00000004     -0.00000005
391 2      2.68800000     18.81600000      0.00000000      0.00000002      0.00000024      0.00000010
392 2      8.06400000     18.81600000      0.00000000     -0.00000003      0.00000004      0.00000001
396 2      2.68800000     24.19200000      0.00000000      0.00020240     -0.00020500     -0.00000260
397 2      8.06400000     24.19200000      0.00000000     -0.00000061      0.00000024      0.00000010
416 2      2.68800000     18.81600000      5.37600000     -0.00000002      0.00000013     -0.00000006
417 2      8.06400000     18.81600000      5.37600000     -0.00000002      0.00000002     -0.00000001
421 2      2.68800000     24.19200000      5.37600000     -0.00000215      0.00000290     -0.00000505
422 2      8.06400000     24.19200000      5.37600000     -0.00000020      0.00000007     -0.00000012
23 1     10.75200000     21.50400000      0.00000000     -0.00000007      0.00000004      0.00000001
24 1     16.12800000     21.50400000      0.00000000     -0.00000007     -0.00000004      0.00000001
48 1     10.75200000     21.50400000      5.37600000      0.00000000      0.00000000     -0.00000000
49 1     16.12800000     21.50400000      5.37600000      0.00000000      0.00000000     -0.00000000
143 1     10.75200000     18.81600000      2.68800000      0.00000000      0.00000000     -0.00000000
144 1     16.12800000     18.81600000      2.68800000      0.00000000      0.00000000     -0.00000000
148 1     10.75200000     24.19200000      2.68800000     -0.00000015      0.00000004     -0.00000002
149 1     16.12800000     24.19200000      2.68800000     -0.00000008     -0.00000003      0.00000004
168 1     10.75200000     18.81600000      8.06400000      0.00000000      0.00000000      0.00000000
169 1     16.12800000     18.81600000      8.06400000      0.00000000      0.00000000      0.00000000
173 1     10.75200000     24.19200000      8.06400000      0.00000000     -0.00000000     -0.00000000
174 1     16.12800000     24.19200000      8.06400000      0.00000000     -0.00000000     -0.00000000
273 1     13.44000000     21.50400000      2.68800000     -0.00000000      0.00000000     -0.00000000
298 1     13.44000000     21.50400000      8.06400000     -0.00000000      0.00000000      0.00000000
393 2     13.44000000     18.81600000      0.00000000     -0.00000000      0.00000000      0.00000000
398 2     13.44000000     24.19200000      0.00000000     -0.00000000     -0.00000000      0.00000000
418 2     13.44000000     18.81600000      5.37600000     -0.00000000      0.00000000     -0.00000000
423 2     13.44000000     24.19200000      5.37600000     -0.00000000     -0.00000000      0.00000000
25 1     21.50400000     21.50400000      0.00000000     -0.00000142     -0.00000190      0.00000048
50 1     21.50400000     21.50400000      5.37600000      0.00000010     -0.00000000      0.00000010
145 1     21.50400000     18.81600000      2.68800000     -0.00000001     -0.00000009      0.00000008
150 1     21.50400000     24.19200000      2.68800000     -0.00000237     -0.00000193      0.00000341
170 1     21.50400000     18.81600000      8.06400000      0.00000001      0.00000001     -0.00000000
175 1     21.50400000     24.19200000      8.06400000      0.00000011      0.00000003     -0.00000004
274 1     18.81600000     21.50400000      2.68800000     -0.00000013     -0.00000012      0.00000011
275 1     24.19200000     21.50400000      2.68800000      0.00000148     -0.00000001      0.00000149
299 1     18.81600000     21.50400000      8.06400000      0.00000001     -0.00000000      0.00000001
300 1     24.19200000     21.50400000      8.06400000      0.00000011      0.00000012     -0.00000013
394 2     18.81600000     18.81600000      0.00000000     -0.00000003     -0.00000004      0.00000001
395 2     24.19200000     18.81600000      0.00000000      0.00000002     -0.00000024      0.00000010
399 2     18.81600000     24.19200000      0.00000000     -0.00000061     -0.00000024      0.00000010
400 2     24.19200000     24.19200000      0.00000000      0.00019829      0.00019983     -0.00000154
419 2     18.81600000     18.81600000      5.37600000     -0.00000000     -0.00000000      0.00000001
420 2     24.19200000     18.81600000      5.37600000      0.00000004      0.00000004     -0.00000000
424 2     18.81600000     24.19200000      5.37600000     -0.00000002     -0.00000001      0.00000006
425 2     24.19200000     24.19200000      5.37600000      0.00000171      0.00000096     -0.00000118
51 1      0.00000000      0.00000000     10.75200000      0.00000003      0.00000000     -0.00000021
52 1      5.37600000      0.00000000     10.75200000     -0.00000005      0.00000000     -0.00000011
56 1      0.00000000      5.37600000     10.75200000      0.00000001     -0.00000004     -0.00000007
57 1      5.37600000      5.37600000     10.75200000     -0.00000000      0.00000000     -0.00000000
76 1      0.00000000      0.00000000     16.12800000      0.00000003      0.00000000     -0.00000021
77 1      5.37600000      0.00000000     16.12800000      0.00000003      0.00000000     -0.00000003
81 1      0.00000000      5.37600000     16.12800000      0.00000001      0.00000004     -0.00000007
82 1      5.37600000      5.37600000     16.12800000      0.00000000      0.00000000     -0.00000000
176 1      0.00000000      2.68800000     13.44000000      0.00000000      0.00000000      0.00000000
177 1      5.37600000      2.68800000     13.44000000     -0.00000000      0.00000000      0.00000000
181 1      0.00000000      8.06400000     13.44000000      0.00000000     -0.00000000      0.00000000
182 1      5.37600000      8.06400000     13.44000000     -0.00000000     -0.00000000      0.00000000
301 1      2.68800000      0.00000000     13.44000000     -0.00000000      0.00000000      0.00000000
302 1      8.06400000      0.00000000     13.44000000      0.00000000      0.00000000      0.00000000
306 1      2.68800000      5.37600000     13.44000000     -0.00000000      0.00000000      0.00000000
307 1      8.06400000      5.37600000     13.44000000      0.00000000     -0.00000000      0.00000000
426 2      2.68800000      2.68800000     10.75200000     -0.00000001     -0.00000002     -0.00000008
427 2      8.06400000      2.68800000     10.75200000      0.00000000     -0.00000000     -0.00000000
431 2      2.68800000      8.06400000     10.75200000      0.00000000     -0.00000000     -0.00000000
432 2      8.06400000      8.06400000     10.75200000      0.00000000     -0.00000000     -0.00000000
451 2      2.68800000      2.68800000     16.12800000      0.00000002      0.00000001     -0.00000004
452 2      8.06400000      2.68800000     16.12800000     -0.00000000      0.00000000     -0.00000000
456 2      2.68800000      8.06400000     16.12800000      0.00000000     -0.00000000     -0.00000000
457 2      8.06400000      8.06400000     16.12800000     -0.00000000     -0.00000000     -0.00000000
53 1     10.75200000      0.00000000     10.75200000     -0.00000000      0.00000000     -0.00000000
54 1     16.12800000      0.00000000     10.75200000     -0.00000000      0.00000000     -0.00000000
58 1     10.75200000      5.37600000     10.75200000     -0.00000000      0.00000000     -0.00000000
59 1     16.12800000      5.37600000     10.75200000     -0.00000000      0.00000000     -0.00000000
78 1     10.75200000      0.00000000     16.12800000      0.00000000      0.00000000     -0.00000000
79 1     16.12800000      0.00000000     16.12800000      0.00000000      0.00000000     -0.00000000
83 1     10.75200000      5.37600000     16.12800000      0.00000000      0.00000000     -0.00000000
84 1     16.12800000      5.37600000     16.12800000      0.00000000      0.00000000     -0.00000000
178 1     10.75200000      2.68800000     13.44000000     -0.00000000      0.00000000      0.00000000
179 1     16.12800000      2.68800000     13.44000000     -0.00000000      0.00000000      0.00000000
183 1     10.75200000      8.06400000     13.44000000     -0.00000000     -0.00000000      0.00000000
184 1     16.12800000      8.06400000     13.44000000     -0.00000000     -0.00000000      0.00000000
303 1     13.44000000      0.00000000     13.44000000      0.00000000      0.00000000      0.00000000
308 1     13.44000000      5.37600000     13.44000000      0.00000000      0.00000000      0.00000000
428 2     13.44000000      2.68800000     10.75200000      0.00000000     -0.00000000     -0.00000000
433 2     13.44000000      8.06400000     10.75200000      0.00000000     -0.00000000     -0.00000000
453 2     13.44000000      2.68800000     16.12800000     -0.00000000      0.00000000     -0.00000000
458 2     13.44000000      8.06400000     16.12800000     -0.00000000     -0.00000000     -0.00000000
55 1     21.50400000      0.00000000     10.75200000      0.00000003      0.00000000     -0.00000003
60 1     21.50400000      5.37600000     10.75200000      0.00000000      0.00000000     -0.00000000
80 1     21.50400000      0.00000000     16.12800000     -0.00000005      0.00000000     -0.00000011
85 1     21.50400000      5.37600000     16.12800000      0.00000000      0.00000000     -0.00000000
180 1     21.50400000      2.68800000     13.44000000      0.00000000      0.00000000      0.00000000
185 1     21.50400000      8.06400000     13.44000000      0.00000000     -0.00000000      0.00000000
304 1     18.81600000      0.00000000     13.44000000      0.00000000      0.00000000      0.00000000
305 1     24.19200000      0.00000000     13.44000000     -0.00000000      0.00000000      0.00000000
309 1     18.81600000      5.37600000     13.44000000      0.00000000      0.00000000      0.00000000
310 1     24.19200000      5.37600000     13.44000000     -0.00000000      0.00000000      0.00000000
429 2     18.81600000      2.68800000     10.75200000      0.00000000     -0.00000000     -0.00000000
430 2     24.19200000      2.68800000     10.75200000      0.00000002     -0.00000001     -0.00000004
434 2     18.81600000      8.06400000     10.75200000      0.00000000     -0.00000000     -0.00000000
435 2     24.19200000      8.06400000     10.75200000     -0.00000000     -0.00000000     -0.00000000
454 2     18.81600000      2.68800000     16.12800000      0.00000000      0.00000000     -0.00000000
455 2     24.19200000      2.68800000     16.12800000     -0.00000001      0.00000002     -0.00000007
459 2     18.81600000      8.06400000     16.12800000      0.00000000     -0.00000000     -0.00000000
460 2     24.19200000      8.06400000     16.12800000     -0.00000000     -0.00000000     -0.00000000
61 1      0.00000000     10.75200000     10.75200000      0.00000000      0.00000000     -0.00000000
62 1      5.37600000     10.75200000     10.75200000     -0.00000000      0.00000000     -0.00000000
66 1      0.00000000     16.12800000     10.75200000      0.00000000      0.00000000     -0.00000000
67 1      5.37600000     16.12800000     10.75200000     -0.00000000      0.00000000     -0.00000000
86 1      0.00000000     10.75200000     16.12800000      0.00000000      0.00000000     -0.00000000
87 1      5.37600000     10.75200000     16.12800000     -0.00000000      0.00000000     -0.00000000
91 1      0.00000000     16.12800000     16.12800000      0.00000000     -0.00000000     -0.00000000
92 1      5.37600000     16.12800000     16.12800000     -0.00000000     -0.00000000     -0.00000000
186 1      0.00000000     13.44000000     13.44000000      0.00000000      0.00000000      0.00000000
187 1      5.37600000     13.44000000     13.44000000     -0.00000000      0.00000000      0.00000000
311 1      2.68800000     10.75200000     13.44000000      0.00000000      0.00000000      0.00000000
312 1      8.06400000     10.75200000     13.44000000      0.00000000      0.00000000      0.00000000
316 1      2.68800000     16.12800000     13.44000000      0.00000000     -0.00000000      0.00000000
317 1      8.06400000     16.12800000     13.44000000      0.00000000      0.00000000      0.00000000
436 2      2.68800000     13.44000000     10.75200000      0.00000000     -0.00000000     -0.00000000
437 2      8.06400000     13.44000000     10.75200000      0.00000000     -0.00000000     -0.00000000
461 2      2.68800000     13.44000000     16.12800000      0.00000000      0.00000000     -0.00000000
462 2      8.06400000     13.44000000     16.12800000      0.00000000      0.00000000      0.00000000
63 1     10.75200000     10.75200000     10.75200000     -0.00000000      0.00000000     -0.00000000
64 1     16.12800000     10.75200000     10.75200000     -0.00000000      0.00000000     -0.00000000
68 1     10.75200000     16.12800000     10.75200000      0.00000000      0.00000000      0.00000000
69 1     16.12800000     16.12800000     10.75200000      0.00000000      0.00000000     -0.00000000
88 1     10.75200000     10.75200000     16.12800000      0.00000000      0.00000000     -0.00000000
89 1     16.12800000     10.75200000     16.12800000      0.00000000      0.00000000     -0.00000000
93 1     10.75200000     16.12800000     16.12800000      0.00000000     -0.00000000     -0.00000000
94 1     16.12800000     16.12800000     16.12800000      0.00000000     -0.00000000     -0.00000000
188 1     10.75200000     13.44000000     13.44000000      0.00000000      0.00000000      0.00000000
189 1     16.12800000     13.44000000     13.44000000      0.00000000      0.00000000      0.00000000